# vtk DataFile Version 4.0
Elmer simulation
ASCII
DATASET UNSTRUCTURED_GRID
POINTS 	532 float
-335       139         0
1065       139         0
1065       517         0
-335       517         0
201       387         0
195       384         0
190       381         0
184       380         0
178       381         0
172       383         0
165       383         0
159       382         0
153       381         0
147       380         0
140       379         0
134       377         0
130       373         0
125       369         0
120       366         0
114       362         0
109       359         0
103       356         0
98       353         0
97       347         0
99       342         0
93       341         0
89       338         0
86       332         0
84       326         0
84       320         0
84       314         0
88       310         0
88       303         0
91       298         0
87       293         0
83       288         0
78       284         0
75       279         0
71       274         0
65       271         0
65       266         0
71       265         0
77       267         0
83       269         0
89       270         0
95       271         0
101       271         0
108       272         0
114       272         0
120       275         0
125       277         0
132       277         0
138       277         0
144       277         0
150       278         0
156       279         0
162       280         0
168       284         0
173       287         0
179       290         0
185       292         0
190       288         0
194       284         0
197       278         0
203       276         0
209       274         0
213       270         0
218       266         0
224       267         0
230       265         0
236       266         0
233       270         0
228       274         0
226       280         0
223       285         0
218       289         0
219       295         0
224       297         0
231       298         0
237       299         0
243       301         0
248       304         0
253       308         0
259       311         0
264       313         0
265       319         0
263       325         0
263       332         0
262       338         0
259       343         0
256       349         0
254       355         0
253       361         0
248       364         0
245       369         0
247       375         0
246       381         0
244       387         0
239       390         0
233       391         0
226       391         0
220       390         0
214       389         0
208       388         0
365       139         0
365       517         0
15       139         0
15       517         0
56.7174     268.5         0
125.813   267.717         0
80.5     306.5         0
86.0304   346.126         0
125.374   381.626         0
205.34    266.34         0
185.374   279.374         0
223.429   291.179         0
241.126    272.97         0
264.813   303.717         0
87.6565   259.561         0
66.3435   255.561         0
64.7174   283.126         0
214.814   402.618         0
193.03   395.439         0
215.831   256.485         0
235.657   288.561         0
221.343   400.439         0
254.939   387.313         0
268.783    345.47         0
273.939   325.313         0
252.214   369.929         0
141   267.061         0
119.45     268.6         0
73.8739   294.283         0
74.0609       317         0
91.1572   351.057         0
79.3452   339.077         0
117.679   375.535         0
133.927   387.219         0
234.657   255.561         0
197.635   269.904         0
184.022   285.652         0
175.47   277.217         0
250.47   294.217         0
234.876    277.47         0
258.45     304.6         0
98   261.061         0
81.8172   262.548         0
71.2887   284.627         0
246.135   396.224         0
199.781   404.582         0
148.343   390.439         0
221.819   261.588         0
229.074   287.683         0
242.331   293.008         0
176.817   387.452         0
186.153   385.583         0
232.038   411.702         0
253.942    379.24         0
263.439   359.657         0
262.779    348.64         0
271.21   336.452         0
274.439   314.343         0
160.657   269.561         0
148.198    270.31         0
135   270.672         0
111   262.061         0
80.4831   294.114         0
77.6722       323         0
95.5304   362.783         0
78.1478   331.284         0
124.053   375.308         0
260.346   294.884         0
92.9248   264.951         0
75.734   260.798         0
203.589   393.874         0
154.945   387.828         0
221.301   411.188         0
161.117   387.797         0
158.082   398.036         0
153.912   273.027         0
121.173   257.643         0
77.3349   300.311         0
102.999   363.503         0
81.0355    253.82         0
215.945   395.828         0
237.419   399.013         0
58.6325   259.875         0
154.141   265.179         0
108.805   364.991         0
139.647    395.49         0
190.565   273.423         0
229.5   398.155         0
114.153   368.271         0
103.436   373.866         0
108.777   371.036         0
109.967   379.736         0
203.113   254.375         0
168.386   276.921         0
243.211   282.456         0
66.348   291.124         0
142.589   385.874         0
269.33   353.776         0
133.12   260.758         0
105.319   265.768         0
80.4254   357.084         0
65.8366   337.164         0
168.5   389.803         0
70.6053   307.656         0
181.974   271.168         0
172.336   267.327         0
190       517         0
104.724    258.65         0
66.4624    325.66         0
58.6947   276.919         0
70.1126    300.45         0
190       139         0
209.343   398.439         0
112.555   251.719         0
97.3687   248.717         0
58.4208   304.869         0
207.653   406.322         0
223.687   256.061         0
250.108   260.993         0
264.798    372.41         0
117.268   383.961         0
96.978    387.62         0
282.815   348.716         0
89.161   251.137         0
176.553   402.405         0
245.749   410.032         0
200.835   418.491         0
43.3866   261.015         0
52.2847   289.826         0
211.588    263.11         0
263.364   382.174         0
274.574   364.919         0
124.194   392.767         0
108.124   391.342         0
80.6543   239.018         0
55.3423   244.944         0
43.7592   275.985         0
219.056    243.26         0
90.6472   241.049         0
277.211     291.9         0
256.218    282.55         0
189.081   261.579         0
76.7101   348.271         0
63.6584   315.536         0
183.18   394.985         0
148.353   400.467         0
292.36   320.657         0
225.817    429.23         0
267.664   398.699         0
277.846   379.314         0
198.397   261.442         0
164.322   257.076         0
249.761   276.044         0
263.533   268.832         0
63.969   358.832         0
48.2902   325.243         0
187.625   405.624         0
157.244   415.367         0
193.617   253.145         0
135.756     412.4         0
106.711   233.749         0
145.706   253.099         0
228.769   246.984         0
178.332   250.361         0
200.402   238.029         0
102.5       139         0
126.678   240.405         0
245.92    241.52         0
230.083   229.032         0
285.921   334.153         0
52.2622   314.513         0
176.757   422.355         0
96.3851   407.945         0
32.5008   313.298         0
43.5515   302.161         0
89.2722   375.608         0
240.566   424.596         0
298.718   367.001         0
160.246     230.6         0
267.205    247.13         0
18.7742   269.117         0
73.2277   394.379         0
267.284     425.9         0
304.672   345.765         0
22.3916   292.216         0
277.5       517         0
62.6974   219.339         0
114.705   408.446         0
73.6561   371.692         0
102.5       517         0
47.5107   381.309         0
46.718   346.431         0
304.867   405.872         0
105.138   423.059         0
258.689   209.041         0
298.633   263.609         0
22.7433   233.175         0
122.009   427.578         0
28.9067   334.457         0
336.874   366.246         0
89.0143    223.48         0
143.792   433.492         0
-4.22605   317.944         0
21.6754   364.448         0
127.721   204.001         0
107.497   212.011         0
80.847   189.691         0
108.16    184.15         0
195.197    460.31         0
66.4289   432.532         0
-9.9008    285.44         0
106.089   453.266         0
85.0077   424.625         0
127.887   448.998         0
69.2375    413.35         0
83.8077   447.587         0
159.685   465.703         0
146.25       517         0
36.0579   418.288         0
54.0626   400.253         0
32.7778   397.009         0
-0.831538   413.082         0
58.75       517         0
50.6898   468.258         0
201.399   187.864         0
340.109   312.816         0
58.75       139         0
146.25       139         0
139.983   172.355         0
89.7573   163.527         0
60.8045   168.266         0
240.867   451.345         0
277.5       139         0
308.85   293.601         0
349.103   263.152         0
-12.5322    247.47         0
-60.9069   311.093         0
123.86   486.235         0
86.3602   484.123         0
12.4416   452.331         0
159.63   198.167         0
284.398   470.104         0
172.965   167.634         0
301.777   219.403         0
-50.0493   269.146         0
-160       139         0
-160       517         0
288.578   179.522         0
-124.963   272.134         0
-72.5       517         0
233.75       139         0
321.25       139         0
-15.7199   188.932         0
337.431   185.479         0
406.875   369.635         0
-37.1527   366.749         0
321.25       517         0
343.125   469.831         0
-72.5       139         0
348.442    408.33         0
715       517         0
-53.2335    220.33         0
715       139         0
-46.1752   411.225         0
-124.701   411.366         0
-85.4942   380.095         0
-335       328         0
26.0219   191.484         0
[...]
CELL_DATA	889
SCALARS procid int 1
LOOKUP_TABLE default
1
1
3
1
1
1
1
1
1
1
1
4
2
1
3
1
1
1
2
1
2
1
1
1
1
1
2
2
1
1
1
3
1
1
2
1
1
2
3
1
4
1
3
4
1
1
1
3
3
1
1
3
3
1
3
1
3
1
2
4
2
2
1
2
2
1
2
1
1
2
3
2
1
1
2
1
4
2
2
4
2
2
3
2
2
2
2
2
2
3
2
3
1
2
2
2
1
2
1
2
3
4
1
3
3
1
4
3
3
1
3
2
3
3
3
1
4
3
2
3
3
3
1
4
1
3
2
3
4
3
3
1
3
3
1
3
4
3
3
1
1
3
2
3
3
2
3
3
3
3
4
3
4
2
2
4
1
1
3
4
3
2
2
1
3
4
4
4
1
2
4
2
3
4
1
4
1
4
1
4
3
4
3
4
3
3
4
4
4
4
4
1
4
4
4
3
3
4
4
1
2
2
2
1
4
4
4
4
4
4
4
4
4
4
3
4
1
1
1
1
1
1
1
1
1
1
2
2
2
2
2
2
2
2
3
3
1
1
1
1
4
4
2
4
4
2
2
4
4
4
1
1
1
3
1
1
2
2
1
1
4
4
4
4
4
1
1
3
2
2
4
4
2
3
4
1
2
2
2
2
2
2
2
2
1
3
1
1
3
3
2
1
2
2
4
4
3
3
1
1
2
2
1
1
4
2
2
2
3
3
3
1
4
2
1
1
2
2
1
4
1
1
1
3
4
2
1
1
1
1
2
1
1
4
3
1
3
4
4
2
2
2
2
3
4
1
1
2
2
4
4
2
4
1
1
2
1
3
3
4
4
4
4
2
2
2
2
1
1
1
1
1
1
3
3
3
1
3
4
3
3
1
1
2
2
2
1
4
2
2
2
3
4
4
4
4
4
4
4
3
3
1
3
3
3
3
3
2
2
2
1
4
4
2
2
2
3
2
1
1
1
1
3
3
1
3
1
3
1
1
1
1
3
3
3
3
4
4
2
1
4
2
2
2
2
1
1
1
2
2
4
4
4
4
1
1
3
3
1
1
2
2
4
4
3
4
2
1
4
4
1
1
2
2
2
2
2
2
2
2
2
2
4
4
2
1
3
3
4
3
1
1
2
2
2
1
4
4
1
2
2
2
2
1
2
2
1
1
1
1
1
1
1
4
2
2
2
2
1
2
2
2
2
2
2
2
2
2
2
2
2
2
2
2
2
2
2
2
2
2
2
2
2
2
1
3
3
3
1
1
1
1
1
1
1
1
3
4
3
3
3
3
3
1
1
1
1
2
2
2
1
1
3
4
4
1
3
1
3
2
2
1
3
2
3
1
1
4
2
3
3
2
3
1
3
3
4
2
2
4
4
4
4
1
4
3
4
4
1
4
2
2
2
2
1
2
2
1
1
1
3
1
4
3
3
4
3
4
4
4
4
4
4
3
3
4
4
4
4
3
4
4
4
4
4
4
4
4
4
4
4
4
4
4
4
4
4
4
3
4
3
3
4
4
3
3
3
4
3
3
4
3
3
3
4
4
3
3
4
4
4
4
3
3
4
3
4
4
3
3
3
3
3
3
3
3
3
3
3
3
3
3
3
3
3
3
3
3
3
3
3
4
3
4
3
3
4
1
3
2
2
2
2
2
2
2
2
2
2
2
2
2
1
1
1
2
2
1
2
1
2
2
2
2
2
2
2
2
1
1
1
1
1
2
2
1
1
1
1
2
2
1
1
1
2
2
3
1
1
1
3
4
4
4
4
4
4
4
4
3
3
3
3
3
3
3
4
3
3
3
4
4
3
2
2
1
1
1
1
1
2
2
2
2
2
2
2
1
1
1
4
4
4
3
4
4
4
4
3
4
4
4
4
4
4
4
4
4
4
4
4
3
4
4
4
4
3
4
4
4
4
4
4
3
3
4
3
4
3
4
3
3
3
3
4
3
3
3
3
3
3
3
3
3
3
3
4
4
4
3
3
3
4
3
3
4
4
4
4
3
4
4
3
4
3
3
3
3
3
POINT_DATA	532
SCALARS pressure float 1
LOOKUP_TABLE default
0.488086
-9.07415e-07
1.97082e-06
0.49448
-0.548479
-0.569735
-0.586478
-0.611292
-0.645947
-0.681281
-0.707839
-0.746064
-0.775385
-0.726198
-0.609377
-0.355093
-0.25654
-0.198359
-0.148528
-0.0859507
-0.0336409
0.117072
0.391995
0.53603
0.548867
0.566372
0.699645
0.813775
0.905703
0.957769
0.978256
0.984978
0.98882
0.989955
0.991258
0.989071
0.980443
0.946099
0.878293
0.773996
0.207458
-0.537728
-0.797756
-0.84103
-0.855067
-0.852316
-0.848067
-0.846966
-0.839291
-0.811187
-0.777311
-0.717105
-0.639184
-0.551366
-0.464463
-0.373374
-0.270556
-0.223075
-0.194839
-0.169488
-0.154253
-0.135584
-0.111075
-0.028997
0.00223398
0.00144378
-0.0143559
-0.163319
-0.383354
-0.496223
-0.567614
-0.601115
-0.609594
-0.616436
-0.623581
-0.62908
-0.634009
-0.636802
-0.642262
-0.648248
-0.658067
-0.665382
-0.66695
-0.624197
-0.524147
-0.450243
-0.423624
-0.422446
-0.453249
-0.501754
-0.55797
-0.606766
-0.661591
-0.700078
-0.713776
-0.713211
-0.751693
-0.809061
-0.814737
-0.768056
-0.724836
-0.685625
-0.633211
-0.597411
-0.0982216
-0.101114
0.244453
0.366976
0.559808
-0.805667
0.983838
0.601958
-0.256042
0.00025759
-0.133883
-0.631193
-0.598418
-0.653586
-0.871066
-0.448486
0.897447
-0.657296
-0.562955
-0.184798
-0.632688
-0.718859
-0.769272
-0.520744
-0.455322
-0.713387
-0.648459
-0.843958
0.981006
0.961725
0.499762
0.762399
-0.153779
-0.486162
-0.561532
-0.0105069
-0.153519
-0.181659
-0.67307
-0.610257
-0.672815
-0.84183
-0.840609
0.9562
-0.862832
-0.569661
-0.730068
-0.352519
-0.627123
-0.648572
-0.661084
-0.595276
-0.669761
-0.717487
-0.675012
-0.551037
-0.45906
-0.525895
-0.325518
-0.518561
-0.698441
-0.843241
0.989063
0.931041
0.223001
0.860089
-0.21822
-0.705513
-0.852674
-0.771948
-0.589429
-0.762066
-0.620158
-0.724563
-0.620906
-0.420204
-0.850704
0.984947
-0.00874218
-0.834656
-0.675242
-0.813502
0.154933
-0.451854
-0.0660629
-0.475569
-0.06583
-0.792402
-0.116491
0.043059
-0.0651527
-0.0161133
-0.0840582
-0.230808
-0.625861
0.950443
-0.729629
-0.633526
-0.789002
-0.845036
0.564612
0.82731
-0.697451
0.96795
-0.12915
-0.207119
-0.213512
-0.834129
0.906833
0.802949
0.971115
-0.256853
-0.620195
-0.829033
-0.772361
0.930174
-0.598428
-0.407709
-0.6228
-0.794745
-0.111855
0.175182
-0.568986
-0.829402
-0.583015
-0.712837
-0.495912
0.473492
0.876204
-0.0789766
-0.76208
-0.771354
-0.20632
0.026436
-0.48148
0.078691
0.721738
-0.258959
-0.654611
-0.739074
-0.709833
-0.0893989
0.683589
0.934286
-0.604824
-0.492853
-0.386967
-0.483533
-0.728384
-0.828956
-0.0385902
-0.322009
-0.650516
-0.728984
0.634242
0.850524
-0.539369
-0.379703
-0.108707
-0.239666
-0.608806
-0.61827
-0.41536
-0.223924
-0.22479
-0.112172
-0.6743
-0.502102
-0.347265
-0.461397
0.891801
-0.400656
0.154595
0.793029
0.85593
0.284741
-0.551121
-0.577756
-0.355297
-0.566585
0.594269
0.369241
-0.497225
-0.316556
0.722333
-0.256791
-0.0014001
-0.0221842
0.484091
0.105028
0.535167
0.730906
-0.379204
0.0753115
-0.331102
-0.538647
0.36165
-0.0528807
0.740792
-0.116646
-0.351943
-0.190871
0.649589
0.617711
-0.327626
-0.34359
-0.0794451
-0.187629
-0.305412
0.295049
0.60179
0.0752173
0.20804
-0.0519517
0.333432
0.195947
-0.16756
-0.0733781
0.424691
0.427089
0.490548
0.488775
0.261183
0.299241
-0.272338
0.0132898
0.0759739
-0.231604
-0.236048
-0.073107
0.0643309
-0.395521
-0.242053
-0.40037
-0.0713481
0.491481
0.548796
0.00816805
0.167107
0.409671
-0.290189
-0.280662
-0.264779
-0.296534
0.523344
0.473983
0.488241
-0.240448
0.501084
0.462107
-0.256951
-0.147759
0.371189
-0.12902
0.0424859
0.555688
-0.137747
-0.118528
0.422542
-0.0926743
0.000462144
0.45639
-0.000751929
0.506041
0.500371
0.519208
0.493439
0.240347
0.369888
0.0721262
-0.0087477
-0.0349065
-0.0344945
-0.25966
-0.00184004
0.00116084
-0.00400376
-0.0192797
0.00930429
0.0155144
-0.00786471
0.0156422
0.00420335
-0.00248002
0.000119641
-0.0364379
0.000592221
0.0016967
0.000976922
0.0011677
0.00104521
0.00273026
0.00013647
0.00478933
0.000431021
0.000386307
0.000338305
-0.000371986
1.59927e-06
-0.000359166
0.000210684
-0.00343671
0.000252921
-0.000110345
0.00682381
0.0182124
0.03464
0.00148735
-0.00127737
-0.00484283
-0.00099986
-0.000901363
-0.00164997
-0.00160445
-0.00368234
-0.00147006
-0.000803831
0.000129501
-0.0438287
-0.0128896
-0.000112898
0.000287386
-0.0152686
-0.000391558
-0.000275115
0.518903
0.508605
0.497067
0.501428
0.50077
0.49333
0.498289
0.495087
0.494132
0.485367
0.49416
0.492415
0.491972
0.459322
0.481505
0.492598
0.49385
0.490607
0.47843
0.429283
0.494666
0.49073
0.485643
0.492004
0.494511
0.484285
0.48929
0.493742
0.492074
0.488736
0.487197
-0.0479427
0.0708649
0.000886962
0.000427217
0.000105225
0.000183626
-0.000460536
-0.000133056
-0.000415585
-0.000146789
-2.32286e-05
-9.34488e-05
6.46695e-05
1.77287e-05
0.495852
0.457814
0.456851
0.485384
0.494416
0.495012
0.494473
0.494226
0.495022
0.48195
0.486643
0.000173244
0.000140294
9.40982e-05
0.000149208
6.98279e-05
0.000206019
8.89839e-05
2.91047e-06
9.49302e-05
4.90968e-05
6.6962e-05
2.9982e-05
2.23378e-06
4.69254e-05
6.34383e-05
-4.8822e-05
4.46435e-05
-1.26477e-05
4.45837e-08
1.9757e-05
-1.59713e-05
0.000459242
-0.000241438
-0.000172451
-0.00014107
-5.05529e-05
-9.11727e-05
-5.15745e-05
-3.64875e-05
6.24211e-05
-8.34631e-05
1.15932e-05
3.00284e-05
-7.62519e-05
-5.28035e-06
-1.99146e-05
-3.51702e-06
3.03151e-05
1.52998e-05
2.49524e-05
9.58786e-07
9.77617e-06
-1.12238e-07
-5.71565e-07
-1.60287e-05
-3.49198e-05
-7.09413e-07
VECTORS velocity float
1               0               0
0.999833               0               0
1.0002               0               0
1               0               0
0               0               0
0               0               0
0               0               0
0               0               0
0               0               0
0               0               0
0               0               0
0               0               0
0               0               0
0               0               0
0               0               0
0               0               0
0               0               0
0               0               0
0               0               0
0               0               0
0               0               0
0               0               0
0               0               0
0               0               0
0               0               0
0               0               0
0               0               0
0               0               0
0               0               0
0               0               0
0               0               0
0               0               0
0               0               0
0               0               0
0               0               0
0               0               0
0               0               0
0               0               0
0               0               0
0               0               0
0               0               0
0               0               0
0               0               0
0               0               0
0               0               0
0               0               0
0               0               0
0               0               0
0               0               0
0               0               0
0               0               0
0               0               0
0               0               0
0               0               0
0               0               0
0               0               0
0               0               0
0               0               0
0               0               0
0               0               0
0               0               0
0               0               0
0               0               0
0               0               0
0               0               0
0               0               0
0               0               0
0               0               0
0               0               0
0               0               0
0               0               0
0               0               0
0               0               0
0               0               0
0               0               0
0               0               0
0               0               0
0               0               0
0               0               0
0               0               0
0               0               0
0               0               0
0               0               0
0               0               0
0               0               0
0               0               0
0               0               0
0               0               0
0               0               0
0               0               0
0               0               0
0               0               0
0               0               0
0               0               0
0               0               0
0               0               0
0               0               0
0               0               0
0               0               0
0               0               0
0               0               0
0               0               0
0               0               0
0               0               0
1.12423               0               0
1.19143               0               0
1.22427               0               0
1.10828               0               0
0.398775       -0.881828               0
-0.219034       -0.139007               0
0.0935955     0.000413111               0
0.550753        0.625632               0
1.355        0.766608               0
0.689308       -0.137979               0
0.137738       0.0519406               0
0.0219461       0.0153914               0
-0.0512335       -0.312058               0
-0.346431       -0.468052               0
0.377587       -0.138034               0
1.40721       -0.837745               0
0.134087       -0.334326               0
1.66635       0.0656464               0
1.04137         0.12695               0
1.24659       -0.250703               0
-0.013086       -0.006394               0
1.56843       0.0543298               0
0.497415      -0.0945332               0
-0.244593        0.282728               0
-0.357679       0.0192464               0
-0.0987776        0.336391               0
0.194868       0.0927734               0
-0.28756       -0.207338               0
0.110349      -0.0987402               0
0.162155        0.154084               0
0.47203        0.749091               0
0.456759         0.59825               0
1.15142        0.697026               0
1.54642        0.716059               0
1.31407       0.0138876               0
0.570812      -0.0399551               0
-0.0679549     -0.00824239               0
0.141986       0.0402634               0
-0.19123       -0.333153               0
0.0669603       0.0140283               0
-0.225087       -0.287998               0
0.0688358     -0.00300401               0
0.0892421       -0.158155               0
0.109532       -0.264729               0
1.27005       -0.132595               0
1.83309        0.126205               0
1.42189        0.430893               0
0.589021       -0.185435               0
-0.0163804      -0.0460735               0
-0.0738849       -0.107432               0
0.512886       0.0187967               0
0.241951       -0.016265               0
1.88661      -0.0192261               0
0.116087        0.243427               0
-0.267827        0.547293               0
-0.195936        0.280592               0
-0.272912        0.158122               0
-0.42256       -0.185501               0
0.34131         0.15494               0
0.112428         0.12735               0
-0.168335      -0.0732706               0
0.00485656       -0.261661               0
0.0728629      -0.0710662               0
0.137256        0.284935               0
1.00768        0.926586               0
0.245908        0.459195               0
0.718056        0.432954               0
-0.27239       -0.498723               0
0.096735     -0.00780706               0
0.386649       -0.295471               0
0.826224        0.104115               0
0.936339        0.174588               0
1.87604       0.0712383               0
0.790602        0.130941               0
1.8052        0.371244               0
0.0869682        0.138056               0
0.661056      -0.0261024               0
0.0955958      -0.0467743               0
0.839578        0.582664               0
1.31635       -0.411324               0
0.940732       0.0976865               0
1.45185      -0.0943954               0
1.07787        -1.00914               0
0.475942        0.259334               0
0.676907        0.418423               0
1.70828        0.628466               0
0.468734        0.070458               0
1.39732      -0.0313882               0
0.628915        0.450479               0
1.22717        0.819603               0
1.06847          0.6817               0
1.31157        0.746771               0
1.08386      -0.0746091               0
0.0722624       0.0251033               0
-0.0137031        -0.24664               0
0.235314       -0.232521               0
1.17719        0.375499               0
-0.35874        0.346522               0
0.552466       0.0311373               0
0.0310937      -0.0776899               0
0.782367        0.637268               0
0.533704        0.342571               0
0.861385       0.0971465               0
0.218548       0.0136166               0
0.575982        0.129868               0
0.669809        0.225043               0
1.48078               0               0
0.226844       -0.142577               0
0.35047        0.203478               0
0.20135       -0.555936               0
0.172713      -0.0702184               0
1.42039               0               0
1.28663        0.115177               0
1.07454       -0.121995               0
1.31107       -0.214133               0
0.347964      -0.0770914               0
1.86155        0.137736               0
1.35191       -0.218065               0
0.956958       0.0192881               0
0.0850652        0.456135               0
1.37162        0.714749               0
1.15055        0.563155               0
-0.30472       0.0926751               0
1.31055       -0.338225               0
1.84523        0.257144               0
1.79806         -0.1666               0
1.72002         0.11682               0
0.895757       -0.606959               0
0.423119       -0.266214               0
0.728991       -0.306792               0
0.562814        0.160225               0
-0.0425418       0.0258534               0
1.49013        0.637401               0
1.27901        0.592796               0
1.62493       -0.527775               0
1.22985       -0.634824               0
0.590756       -0.438579               0
1.46834      -0.0363075               0
1.62033        -0.37641               0
0.0714329       0.0124391               0
-0.0450251        -0.48543               0
0.842648       0.0735616               0
0.615368        0.586088               0
0.291633        0.062147               0
1.11418        0.072281               0
1.78554        0.466693               0
-0.455817        0.103544               0
1.71945     -0.00168957               0
1.52644       -0.327036               0
0.922306       -0.422252               0
0.856653      -0.0363573               0
0.975987        0.314002               0
-0.0450224       -0.344504               0
0.718514     -0.00301869               0
0.773454        0.411135               0
0.568205        0.112471               0
1.86635        0.183067               0
1.63865        0.299342               0
1.06024       0.0594475               0
1.50851        0.408118               0
1.70378       -0.167402               0
1.14637        0.300749               0
1.56013      -0.0893332               0
1.0978        0.182546               0
1.41153       0.0905596               0
1.44991               0               0
1.62875       0.0632835               0
1.60458        0.005361               0
1.45499       0.0199584               0
-0.353235       0.0871564               0
0.409746       0.0101819               0
1.65172        0.192521               0
1.19342        0.406822               0
0.608026      -0.0258336               0
0.518188       -0.137642               0
1.01473        0.623707               0
1.74281      -0.0765061               0
0.630834       -0.534977               0
1.56493        0.223469               0
1.53142        0.199174               0
0.864007       -0.295104               0
1.00812        0.391475               0
1.64064       -0.197294               0
0.105934       -0.384572               0
0.745752       -0.170528               0
1.43258               0               0
1.40248       -0.365842               0
1.32889        0.446569               0
0.890503        0.488564               0
1.30964               0               0
0.881993        0.269426               0
0.723364        0.233851               0
1.42345       -0.466332               0
1.29482        0.335083               0
1.47041       0.0592239               0
1.22462        0.486795               0
1.08567       -0.325427               0
1.39036        0.314886               0
0.749569       0.0900786               0
0.648171       -0.485283               0
1.63938       -0.329792               0
1.5084        0.262177               0
0.829468      -0.0232065               0
0.835845        0.126912               0
1.65016     -0.00664726               0
1.6774       -0.158462               0
1.4647        -0.16029               0
1.53122      -0.0598863               0
1.60237       0.0605099               0
1.15587        0.233488               0
0.893234       -0.120531               0
1.32433         0.19959               0
1.20649        0.299085               0
1.41109        0.208875               0
1.10153         0.29514               0
1.23471        0.207455               0
1.51641        0.109095               0
1.40432               0               0
1.05881        0.193367               0
0.982184         0.27552               0
0.94354         0.20035               0
1.00649        0.123481               0
1.20212               0               0
1.15834        0.115431               0