# vtk DataFile Version 4.0
Elmer simulation
ASCII
DATASET UNSTRUCTURED_GRID
POINTS 	550 float
62                -163                   0
965                -163                   0
965                 617                   0
62                 617                   0
366                 422                   0
357                 417                   0
352                 408                   0
352                 398                   0
353                 388                   0
356                 379                   0
360                 370                   0
356                 361                   0
346                 355                   0
336                 352                   0
328                 345                   0
323                 336                   0
324                 326                   0
325                 316                   0
322                 306                   0
322                 295                   0
322                 284                   0
322                 274                   0
320                 264                   0
321                 254                   0
322                 244                   0
321                 234                   0
326                 224                   0
330                 215                   0
338                 208                   0
342                 199                   0
342                 189                   0
341                 180                   0
340                 169                   0
341                 159                   0
344                 149                   0
342                 138                   0
339                 130                   0
340                 120                   0
341                 112                   0
339                 102                   0
340                  92                   0
335                  86                   0
339                  83                   0
337                  73                   0
336                  63                   0
338                  53                   0
333                  47                   0
336                  45                   0
329                  37                   0
338                  33                   0
348                  32                   0
355                  36                   0
362                  43                   0
367                  49                   0
368                  54                   0
375                  56                   0
377                  49                   0
383                  44                   0
375                  39                   0
385                  41                   0
392                  47                   0
401                  51                   0
394                  58                   0
393                  68                   0
397                  78                   0
400                  88                   0
400                  98                   0
404                 108                   0
407                 119                   0
411                 128                   0
409                 137                   0
413                 147                   0
415                 158                   0
418                 167                   0
423                 176                   0
425                 187                   0
428                 195                   0
430                 205                   0
430                 216                   0
440                 217                   0
446                 224                   0
448                 233                   0
449                 243                   0
446                 253                   0
446                 264                   0
444                 273                   0
440                 280                   0
437                 291                   0
434                 301                   0
435                 310                   0
433                 319                   0
433                 330                   0
433                 340                   0
431                 349                   0
425                 355                   0
415                 359                   0
407                 363                   0
397                 368                   0
393                 376                   0
394                 385                   0
394                 396                   0
394                 406                   0
388                 415                   0
378                 420                   0
513.5                -163                   0
513.5                 617                   0
333.366             41.9897                   0
332.891             79.0217                   0
372                50.6                   0
326.063             43.9748                   0
371.283             44.2268                   0
367.442             37.5602                   0
328.048             56.2097                   0
329.143             95.9643                   0
324.971             69.2047                   0
315.978             35.6223                   0
373.606             25.7595                   0
323.189             85.7612                   0
326.591             186.157                   0
327.248              138.97                   0
339.591              378.53                   0
398.439             32.4043                   0
424.909             135.813                   0
439.752              186.03                   0
417.626             374.252                   0
448.909             317.813                   0
461.909             225.187                   0
327.248             114.343                   0
341.614             18.6362                   0
431.409              157.53                   0
405.599             379.156                   0
437.939             361.939                   0
447.487             304.057                   0
454.596             210.561                   0
446.909             347.813                   0
453.596             283.126                   0
456.251                 271                   0
62                 227                   0
304.935             240.657                   0
307.935             319.343                   0
287.75                 617                   0
353.217             434.409                   0
407.389             64.3889                   0
416.565                  93                   0
331.833            -5.05289                   0
381.679              31.603                   0
330.518             175.407                   0
333.111                 194                   0
313.091             212.874                   0
331.587             150.726                   0
320.404             361.752                   0
337.457             365.311                   0
340.283             391.778                   0
399.745             41.6987                   0
414.488             34.8882                   0
410.224             45.0201                   0
423.909             116.874                   0
439.511             197.898                   0
423.365             365.412                   0
459.348             236.915                   0
330.549             124.105                   0
428.204              167.22                   0
423.007             150.862                   0
410.565                 401                   0
404.043               390.5                   0
444.957                 335                   0
457.272               258.5                   0
312.34             248.084                   0
304.435             272.313                   0
312.954             329.945                   0
303.778               300.5                   0
405.909             420.439                   0
339.591             420.783                   0
411.746             79.0263                   0
369.698             6.40398                   0
287.75                -163                   0
327.327             203.874                   0
314.374             224.437                   0
329.251             162.875                   0
312.155             347.914                   0
348.278             369.821                   0
341.835                 403                   0
434.246             378.758                   0
312.728             124.692                   0
445.857             167.685                   0
434.02             176.599                   0
434.744             144.701                   0
311.826             258.133                   0
312.656                 279                   0
429.14             47.0182                   0
300.468             252.515                   0
313.047               289.5                   0
301.203             284.684                   0
310.235             52.8217                   0
475.01             281.462                   0
391.283             434.065                   0
326.784             373.817                   0
414.585             111.022                   0
426.018             103.159                   0
457.052             192.319                   0
415.523             386.296                   0
467.158             338.174                   0
294.578             220.781                   0
310.294              152.93                   0
292.882             332.958                   0
309.264             100.725                   0
444.603             154.112                   0
443.301             125.346                   0
282.327             273.145                   0
471.368             265.943                   0
322.47             399.959                   0
283.318             239.284                   0
312.98              170.85                   0
480.056             235.293                   0
395.102            -17.9152                   0
[...]
POINT_DATA	550
SCALARS pressure float 1
LOOKUP_TABLE default
0.992327
0.000321916
0.000525803
1.07619
-2.54848
-1.24789
-0.0573158
0.68602
0.897841
0.916446
0.917005
0.917519
0.920464
0.949594
1.12704
1.41353
1.60215
1.67455
1.76383
1.82405
1.87586
1.90696
1.94223
1.95751
1.96208
1.96213
1.95889
1.95519
1.94872
1.9446
1.94061
1.9314
1.91097
1.88351
1.8549
1.84032
1.80612
1.72824
1.67242
1.61661
1.52406
1.45432
1.31777
1.11452
0.871963
0.636861
0.38143
0.278748
-0.78256
-2.53748
-3.4351
-3.53903
-3.5395
-3.53238
-3.52076
-3.51686
-3.52891
-3.52719
-3.52421
-3.13841
-2.86689
-2.59156
-2.4614
-2.35542
-2.14856
-1.77157
-1.52083
-1.24285
-0.948185
-0.743679
-0.658832
-0.565897
-0.485912
-0.42667
-0.37136
-0.330377
-0.29562
-0.262055
-0.251432
-0.242418
-0.227066
-0.224887
-0.229571
-0.252868
-0.284323
-0.329126
-0.380582
-0.449013
-0.517716
-0.588492
-0.687785
-0.810495
-0.988298
-1.25908
-1.48642
-1.94251
-2.22492
-2.41973
-2.49918
-2.58625
-2.7855
-2.94044
-3.19023
-3.22614
-0.177377
-0.0934501
0.14836
1.23437
-3.52651
0.0143803
-3.53543
-3.54826
0.663374
1.53876
1.02083
-0.314529
-3.55371
1.40883
1.93546
1.82791
0.894683
-3.01515
-0.636981
-0.311429
-2.29059
-0.635361
-0.204057
1.68687
-3.33752
-0.449753
-2.5068
-1.46995
-0.517584
-0.22555
-1.06259
-0.364996
-0.300097
1.61194
1.95672
1.65918
0.51781
-1.7499
-2.42687
-1.64532
-1.29213
-3.37883
1.91967
1.94282
1.9553
1.85987
0.986063
0.916947
0.789882
-2.76902
-2.60149
-2.54755
-0.903921
-0.270585
-1.83235
-0.211741
1.75041
-0.403304
-0.517078
-2.8222
-2.69596
-0.845683
-0.253973
1.95899
1.91724
1.51082
1.79538
-3.14795
-0.419748
-2.16093
-2.95093
0.346963
1.94851
1.96043
1.89403
1.24489
0.916838
0.366387
-2.20395
1.74949
-0.361038
-0.354149
-0.526218
1.94966
1.89345
-2.3503
1.94697
1.85097
1.87336
0.710167
-0.273552
-3.33978
0.944989
-1.12484
-1.31444
-0.254138
-2.66274
-0.700628
1.94801
1.8605
1.5714
1.57528
-0.4324
-0.681896
1.88835
-0.241456
0.708016
1.92976
1.90558
-0.168521
-1.58437
0.621832
-1.9713
-0.432422
-2.6446
-0.300618
-0.503926
-0.957103
1.08899
-0.202826
-0.168336
-1.80584
-2.36271
-0.431063
-1.17528
-0.72907
-2.40069
1.94053
1.26313
-3.63249
-3.26107
-0.166537
-1.34667
1.79981
1.8591
-2.77303
1.2156
-0.183171
-2.00066
-0.564157
-1.60125
1.94318
-0.0538713
-1.26566
-1.17938
1.31323
1.39462
1.51098
-0.11708
-1.22695
-1.47142
1.91263
1.91039
-0.83341
-0.0250091
-2.0786
-1.79835
-2.03715
1.72733
-1.35715
1.88848
-0.344183
-1.03297
1.65657
1.83454
-2.01176
-0.717577
1.59096
1.8063
1.04689
0.696113
-0.201432
-0.707063
-1.27882
1.78846
1.30461
1.54902
-0.45784
1.37239
1.67886
1.74367
1.12468
-0.223602
0.92229
-3.08777
-0.577739
-0.329932
0.48168
1.46479
1.75987
1.36139
-1.99698
-0.0724026
1.19973
-0.325447
0.619568
1.66564
1.09998
1.41911
1.5246
1.84757
-0.737907
-0.14015
0.360663
-0.0649007
-0.511016
0.112766
-0.231904
-0.0499375
1.22298
1.31767
-0.0127824
-0.169343
0.880664
-0.75213
1.29283
-0.302425
-0.368223
1.74184
-0.0555193
1.27749
1.65246
-0.048455
-0.117519
1.52709
1.37181
1.4866
1.60249
1.64741
1.35908
1.01741
1.04043
0.75086
1.504
1.51498
1.49984
-0.103092
0.484533
1.51481
-0.000340693
-0.00197859
-0.236648
-0.0365527
1.74738
-0.145198
0.813224
-0.0341221
-0.108821
1.64114
1.58162
1.61882
1.55587
1.61519
-0.175738
0.207247
1.40606
1.33511
1.06903
0.884771
0.225339
0.668204
0.00833472
-0.231307
-0.218856
9.81313e-05
-0.301472
0.00477014
-0.101226
-0.0282405
0.962877
1.08372
1.57795
1.66773
1.67618
-0.264134
-0.127915
-0.114946
1.20653
1.0643
0.554071
-0.0868326
-0.000308983
0.00918205
-0.00606335
0.00668395
0.00097228
0.00939876
-0.0172267
0.00268264
-0.034614
-0.00979251
-0.0310024
-0.00442401
-0.0961492
-0.224762
-0.221554
-0.174071
-0.120829
0.285132
1.02837
0.944308
1.16183
1.22777
1.18001
0.980836
0.789033
-0.258359
0.00646241
-0.263207
-0.0704895
-0.119501
-0.0332649
0.638183
1.13344
1.32101
1.40445
1.40761
1.20798
1.15475
1.24563
1.0461
0.980333
1.04683
0.913917
1.01296
0.991035
0.0086824
0.00225538
0.00566401
-0.00337814
0.00543164
0.00866983
0.00692805
-0.112132
-0.046478
-0.0665989
-0.0190322
-0.0412445
1.11305
1.06127
1.08757
0.00321919
0.00511865
-0.090011
-0.05658
0.000229931
0.00497508
0.00359582
0.00537203
0.00764754
0.000410554
0.00538158
0.00334732
0.00413435
-0.000462769
0.00213188
-0.0461653
-0.0718226
-0.00835631
0.0016092
-0.00212657
-0.000131435
-0.0026884
-0.000120795
0.00340069
-0.034792
0.000814215
-0.00304873
0.00270504
-0.0217421
0.00137965
0.00431944
0.00316961
-0.000243552
0.000200116
0.00159146
0.00135815
-0.0107718
-0.0193655
-3.01837e-05
-0.00199058
-1.30296e-05
0.00163999
-0.0290202
-0.0233962
-0.0242386
-0.0185864
-0.0143291
0.000184181
-0.0113713
0.000142846
-0.00988719
-0.112133
0.797168
0.907234
-0.0148797
1.07359
-0.00227485
-0.00814453
0.00130297
-0.0221823
-0.051434
-0.0481806
-0.0233699
0.00230185
0.00256114
0.00182868
0.00136849
-0.00140318
-0.00139139
0.000147984
-0.00434057
-0.00163618
0.000900181
-0.0105374
-0.108171
-0.0603839
-0.00878442
-0.0210463
0.00126905
0.00205854
0.00162103
-0.0177078
-0.0367718
-0.000248811
-7.30052e-05
-0.000438453
-0.00091971
-0.0038034
-0.00528078
-0.00184925
-0.00700502
-0.00736914
-0.0342885
-0.0180851
-0.015658
0.000264808
0.000931899
0.00121855
-0.00477626
-0.00995913
-0.00501754
6.6142e-05
-0.00366986
-0.00325921
-0.0719583
VECTORS velocity float
1               0               0
1.01661               0               0
1.03502               0               0
1               0               0
0               0               0
0               0               0
0               0               0
0               0               0
0               0               0
0               0               0
0               0               0
0               0               0
0               0               0
0               0               0
0               0               0
0               0               0
0               0               0
0               0               0
0               0               0
0               0               0
0               0               0
0               0               0
0               0               0
0               0               0
0               0               0
0               0               0
0               0               0
0               0               0
0               0               0
0               0               0
0               0               0
0               0               0
0               0               0
0               0               0
0               0               0
0               0               0
0               0               0
0               0               0
0               0               0
0               0               0
0               0               0
0               0               0
0               0               0
0               0               0
0               0               0
0               0               0
0               0               0
0               0               0
0               0               0
0               0               0
0               0               0
0               0               0
0               0               0
0               0               0
0               0               0
0               0               0
0               0               0
0               0               0
0               0               0
0               0               0
0               0               0
0               0               0
0               0               0
0               0               0
0               0               0
0               0               0
0               0               0
0               0               0
0               0               0
0               0               0
0               0               0
0               0               0
0               0               0
0               0               0
0               0               0
0               0               0
0               0               0
0               0               0
0               0               0
0               0               0
0               0               0
0               0               0
0               0               0
0               0               0
0               0               0
0               0               0
0               0               0
0               0               0
0               0               0
0               0               0
0               0               0
0               0               0
0               0               0
0               0               0
0               0               0
0               0               0
0               0               0
0               0               0
0               0               0
0               0               0
0               0               0
0               0               0
0               0               0
0               0               0
1.49937               0               0
1.56944               0               0
0               0               0
-0.0675881       -0.435735               0
0.0147307      -0.0164992               0
0.0525973         -1.0726               0
-0.114251       -0.106554               0
-0.156919       -0.180856               0
0.242795        -1.13197               0
0.0209827       -0.794798               0
0.0579901        -1.25453               0
0.948037        -2.08893               0
1.05728      -0.0870027               0
0.0987064        -1.03948               0
0.0727476        -0.22866               0
0.0364568       -0.532124               0
0.359587        0.618208               0
1.1473        0.439284               0
-0.0870878        0.255071               0
0.0699788        0.231718               0
-0.519654        0.461442               0
-0.0386684       -0.302281               0
0.0818676         0.10133               0
0.054011        -0.71077               0
2.14076       -0.993962               0
-0.0138276        0.269858               0
-0.357458        0.543369               0
-0.16747       -0.270093               0
-0.0394896       -0.223497               0
0.114431        0.172315               0
-0.127716       -0.531862               0
-0.0427001        -0.25627               0
0.0321875       -0.219991               0
1               0               0
0.137301       0.0865188               0
0.229492        0.842132               0
1.53657               0               0
2.15688         1.56091               0
-0.0188831       -0.730812               0
-0.257254       -0.289867               0
2.2796        -1.06049               0
0.721074      -0.0316256               0
0.0460451       -0.276212               0
0.0563222       -0.128218               0
0.121954       -0.110398               0
0.0404324       -0.427297               0
0.648616         1.11559               0
0.249634        0.347639               0
0.659094         1.06547               0
0.226609        0.127435               0
1.33646        0.809227               0
0.489481        0.129591               0
-0.386536        0.263402               0
0.0575415        0.175234               0
-0.39673        0.299801               0
-0.00556204      -0.0180938               0
0.0311524       -0.588386               0
-0.0166465        0.183374               0
-0.0430578        0.176055               0
0.0573939         0.41505               0
-0.0582482        0.574473               0
-0.0395549       -0.339196               0
0.0170179       -0.170872               0
0.10068        0.099654               0
0.124397        0.361694               0
0.20911        0.919673               0
0.189959        0.675213               0
0.941136        -0.10579               0
1.42526         1.88551               0
-0.060799       -0.745116               0
2.40249       -0.117747               0
1.58858               0               0
0.0852971        -0.13193               0
0.0735757      -0.0404229               0
0.0625865       -0.368956               0
0.468148         1.17189               0
0.0655841        0.114767               0
0.429684         1.24088               0
0.0158869        -0.40448               0
0.161193       -0.660029               0
0.0529497        0.288476               0
0.0504732        0.193168               0
-0.0405108        0.345817               0
0.0470365         0.15516               0
0.0705369        0.298016               0
1.14026        0.965693               0
0.166415        0.173238               0
0.0400828         0.33948               0
0.17772        0.496731               0
0.446064        -1.63344               0
0.0876346        -0.30768               0
1.79238        0.149035               0
0.682274         1.13266               0
-0.318026       0.0633721               0
-0.364733        0.297632               0
0.105899        0.244246               0
-0.111935        0.490506               0
0.135663       -0.709701               0
0.211621      -0.0204507               0
0.176105       -0.427082               0
0.427848        0.809377               0
0.227162       -0.879833               0
0.0325603        0.320445               0
-0.205627        0.408257               0
0.322341        0.292049               0
0.105174       -0.242944               0
1.00214         1.40214               0
0.265054       0.0958667               0
0.153389       -0.314949               0
0.142428      -0.0145059               0
2.48356        0.271663               0
0.902966        -1.33157               0
0.221284        0.899614               0
0.075094       -0.498457               0
0.623238       -0.495349               0
0.117136        0.404407               0
-0.067659        0.348787               0
-0.401498        0.463428               0
0.885308         1.14191               0
0.0808837       -0.133474               0
0.24089       -0.200352               0
-0.168955        0.545658               0
0.363007       0.0950018               0
0.104584        0.722267               0
0.00141272         0.98229               0
-0.0879784        0.706277               0
2.04786        0.772994               0
0.146629        -0.17941               0
0.424979        -1.13618               0
1.32127       -0.204186               0
2.14729        0.597382               0
0.211194        0.115919               0
0.226333        -1.03826               0
0.34251        0.433982               0
0.333245       -0.318255               0
2.44533       -0.653412               0
0.654924          1.1076               0
0.179697       -0.149838               0
0.884721         1.16844               0
0.367477         1.03715               0
1.81236         1.12482               0
0.19995       -0.121003               0
1.48567        -1.40338               0
-0.0148044       -0.892065               0
2.08442        0.735489               0
0.817721        0.812987               0
0.573417        0.944568               0
0.635991        0.702674               0
0.301202      -0.0477288               0
0.673492         1.36078               0
1.33718         1.34214               0
0.368516      -0.0881309               0
0.249681       -0.227829               0
0.202864       -0.872137               0
1.7445        0.989414               0
2.50752       -0.574523               0
2.74191        0.316027               0
0.467279         -1.0261               0
0.344582        0.618652               0
2.53784       -0.377709               0
0.360937       -0.208035               0
0.402669       -0.666258               0
0.999699        -1.23793               0
0.515765        0.601658               0
0.535858       -0.129065               0
1.51335        -1.15529               0
0.556559        -1.10654               0
0.70084         0.49354               0
0.493113       -0.281507               0
0.679268          -1.075               0
1.16061       -0.920431               0
0.456261        0.534198               0
1.46673        0.899069               0
2.50261         1.01731               0
0.525403        0.285431               0
1               0               0
0.592199       -0.654872               0
2.10009        0.331483               0
0.605789       -0.836123               0
0.385057       -0.607156               0
0.653232       -0.242342               0
0.87412       -0.809139               0
0.282744       -0.393813               0
1.05605        0.761483               0
2.05295        0.342321               0
1.71803       -0.906378               0
0.850801        0.817455               0
1.24059         1.11583               0
0.932382        0.464769               0
0.43148       -0.445977               0
0.733034        -0.68786               0
2.02187        -1.77217               0
0.486213       -0.190909               0
0.938593        0.685818               0
0.935278       -0.820167               0
1.43027        0.754297               0
0.655325       -0.398647               0
1.12872         0.58558               0
0.822365        0.612582               0
0.718607       -0.529176               0
0.52049       0.0747526               0
2.22126       -0.132746               0
0.542738       -0.360066               0
1.65127        0.479475               0
1.89664       -0.396895               0
2.06757       0.0139091               0
1.71812       -0.731619               0
1.77879               0               0
0.516219        0.171937               0
0.972387       -0.614599               0
0.944526        0.576733               0
0.724923       -0.197134               0
0.669925       -0.501784               0
1.20868               0               0
2.09918        0.326712               0
1.0159        0.375306               0
1.75019       0.0973236               0
1.64398        0.392803               0
0.763696      -0.0435925               0
1.72722               0               0
1               0               0
0.772227        0.332472               0
0.999867       -0.333611               0
1.84769       0.0229898               0
0.856129       -0.403337               0
0.844941       -0.595333               0
0.827475       -0.495281               0
0.773759       -0.409063               0
0.832689       -0.294589               0
0.95905       -0.452019               0
1.05765       -0.710139               0
1.13187       -0.526464               0
1.34852       -0.568991               0
1               0               0
0.962188       -0.181582               0
1               0               0
0.963522       -0.520685               0
1.54331       -0.370012               0
0.989731        0.220595               0
0.974621     -0.00109168               0
1.12908               0               0
1.67378               0               0
0.878919         0.27386               0
0.702658        0.147291               0
0.360368         0.26817               0
1.32358        0.412279               0
0.854185       -0.325419               0
1.28101       -0.381167               0
0.867564        0.181346               0
1               0               0
0.970152       0.0250872               0
0.981978       0.0903458               0
0.976233      -0.0618896               0
1.72326       -0.140675               0
1.69379               0               0
1               0               0
1.00514       -0.189573               0
1               0               0
1.19974       -0.269428               0
1.63257       -0.160332               0
1.39331               0               0
1.76068               0               0
1.37707       -0.717482               0
1.43603        -0.47235               0
1.08668               0               0
1.78496       -0.421275               0
0.912049       -0.125941               0
0.803699        0.462285               0
1.09618               0               0
1.16198               0               0
1.08356        0.316618               0
1               0               0
0.894939       -0.148529               0
0.905959      -0.0183257               0