# vtk DataFile Version 4.0
Elmer simulation
ASCII
DATASET UNSTRUCTURED_GRID
POINTS 	550 float
62                -163                   0
965                -163                   0
965                 617                   0
62                 617                   0
366                 422                   0
357                 417                   0
352                 408                   0
352                 398                   0
353                 388                   0
356                 379                   0
360                 370                   0
356                 361                   0
346                 355                   0
336                 352                   0
328                 345                   0
323                 336                   0
324                 326                   0
325                 316                   0
322                 306                   0
322                 295                   0
322                 284                   0
322                 274                   0
320                 264                   0
321                 254                   0
322                 244                   0
321                 234                   0
326                 224                   0
330                 215                   0
338                 208                   0
342                 199                   0
342                 189                   0
341                 180                   0
340                 169                   0
341                 159                   0
344                 149                   0
342                 138                   0
339                 130                   0
340                 120                   0
341                 112                   0
339                 102                   0
340                  92                   0
335                  86                   0
339                  83                   0
337                  73                   0
336                  63                   0
338                  53                   0
333                  47                   0
336                  45                   0
329                  37                   0
338                  33                   0
348                  32                   0
355                  36                   0
362                  43                   0
367                  49                   0
368                  54                   0
375                  56                   0
377                  49                   0
383                  44                   0
375                  39                   0
385                  41                   0
392                  47                   0
401                  51                   0
394                  58                   0
393                  68                   0
397                  78                   0
400                  88                   0
400                  98                   0
404                 108                   0
407                 119                   0
411                 128                   0
409                 137                   0
413                 147                   0
415                 158                   0
418                 167                   0
423                 176                   0
425                 187                   0
428                 195                   0
430                 205                   0
430                 216                   0
440                 217                   0
446                 224                   0
448                 233                   0
449                 243                   0
446                 253                   0
446                 264                   0
444                 273                   0
440                 280                   0
437                 291                   0
434                 301                   0
435                 310                   0
433                 319                   0
433                 330                   0
433                 340                   0
431                 349                   0
425                 355                   0
415                 359                   0
407                 363                   0
397                 368                   0
393                 376                   0
394                 385                   0
394                 396                   0
394                 406                   0
388                 415                   0
378                 420                   0
513.5                -163                   0
513.5                 617                   0
333.366             41.9897                   0
332.891             79.0217                   0
372                50.6                   0
326.063             43.9748                   0
371.283             44.2268                   0
367.442             37.5602                   0
328.048             56.2097                   0
329.143             95.9643                   0
324.971             69.2047                   0
315.978             35.6223                   0
373.606             25.7595                   0
323.189             85.7612                   0
326.591             186.157                   0
327.248              138.97                   0
339.591              378.53                   0
398.439             32.4043                   0
424.909             135.813                   0
439.752              186.03                   0
417.626             374.252                   0
448.909             317.813                   0
461.909             225.187                   0
327.248             114.343                   0
341.614             18.6362                   0
431.409              157.53                   0
405.599             379.156                   0
437.939             361.939                   0
447.487             304.057                   0
454.596             210.561                   0
446.909             347.813                   0
453.596             283.126                   0
456.251                 271                   0
62                 227                   0
304.935             240.657                   0
307.935             319.343                   0
287.75                 617                   0
353.217             434.409                   0
407.389             64.3889                   0
416.565                  93                   0
331.833            -5.05289                   0
381.679              31.603                   0
330.518             175.407                   0
333.111                 194                   0
313.091             212.874                   0
331.587             150.726                   0
320.404             361.752                   0
337.457             365.311                   0
340.283             391.778                   0
399.745             41.6987                   0
414.488             34.8882                   0
410.224             45.0201                   0
423.909             116.874                   0
439.511             197.898                   0
423.365             365.412                   0
459.348             236.915                   0
330.549             124.105                   0
428.204              167.22                   0
423.007             150.862                   0
410.565                 401                   0
404.043               390.5                   0
444.957                 335                   0
457.272               258.5                   0
312.34             248.084                   0
304.435             272.313                   0
312.954             329.945                   0
303.778               300.5                   0
405.909             420.439                   0
339.591             420.783                   0
411.746             79.0263                   0
369.698             6.40398                   0
287.75                -163                   0
327.327             203.874                   0
314.374             224.437                   0
329.251             162.875                   0
312.155             347.914                   0
348.278             369.821                   0
341.835                 403                   0
434.246             378.758                   0
312.728             124.692                   0
445.857             167.685                   0
434.02             176.599                   0
434.744             144.701                   0
311.826             258.133                   0
312.656                 279                   0
429.14             47.0182                   0
300.468             252.515                   0
313.047               289.5                   0
301.203             284.684                   0
310.235             52.8217                   0
475.01             281.462                   0
391.283             434.065                   0
326.784             373.817                   0
414.585             111.022                   0
426.018             103.159                   0
457.052             192.319                   0
415.523             386.296                   0
467.158             338.174                   0
294.578             220.781                   0
310.294              152.93                   0
292.882             332.958                   0
309.264             100.725                   0
444.603             154.112                   0
443.301             125.346                   0
282.327             273.145                   0
471.368             265.943                   0
322.47             399.959                   0
283.318             239.284                   0
312.98              170.85                   0
480.056             235.293                   0
395.102            -17.9152                   0
[...]
POINT_DATA	550
SCALARS pressure float 1
LOOKUP_TABLE default
-2.15531
-3.97816e-05
0.000202696
-2.20303
-4.84148
-3.79058
-2.78045
-2.10291
-1.95804
-2.00384
-2.048
-2.11984
-2.21793
-2.30421
-2.2759
-2.11115
-2.01719
-1.98913
-1.93915
-1.90135
-1.87298
-1.86395
-1.85088
-1.83889
-1.84197
-1.85225
-1.85784
-1.87132
-1.88104
-1.8864
-1.89175
-1.90609
-1.9268
-1.9535
-1.96774
-1.95919
-1.96835
-1.98921
-1.99627
-1.98924
-1.99341
-1.97522
-2.07559
-2.20727
-2.28843
-2.35747
-2.50249
-2.58808
-3.483
-5.11255
-5.82901
-5.64939
-5.45604
-5.34871
-5.30033
-5.25788
-5.28852
-5.2871
-5.28464
-4.14639
-3.39077
-2.46559
-2.3058
-2.13028
-1.93612
-1.56556
-1.20331
-0.838167
-0.471126
-0.157169
0.0182864
0.2182
0.383826
0.50298
0.624998
0.716565
0.777757
0.826753
0.836553
0.844869
0.851096
0.853472
0.85186
0.831307
0.804889
0.749872
0.666221
0.556055
0.397992
0.247425
0.0196104
-0.2545
-0.619231
-1.00457
-1.58606
-2.11422
-2.4806
-2.58483
-2.66882
-2.75766
-2.99108
-3.62418
-4.65242
-5.21338
-0.745201
-0.688759
-2.69676
-2.12483
-5.29979
-2.79997
-5.32942
-5.44136
-2.36486
-1.98659
-2.20541
-3.03691
-5.21086
-1.9746
-1.91143
-1.95538
-2.08377
-3.52461
0.0789843
0.742496
-2.35293
0.12827
0.865887
-1.97659
-5.78587
0.46476
-2.63811
-1.22633
0.402739
0.84548
-0.642644
0.687829
0.785153
-2.17938
-1.85074
-1.99217
-1.49904
-4.04724
-2.27325
-1.19152
-3.16052
-4.67776
-1.9222
-1.8929
-1.87839
-1.96373
-2.32407
-2.25635
-2.04574
-3.13816
-2.79636
-2.92285
-0.291396
0.81201
-1.90158
0.868898
-1.98397
0.554112
0.326713
-3.28158
-2.84772
-0.344462
0.838818
-1.84478
-1.86518
-2.07532
-1.91232
-4.12589
-3.01169
-1.85246
-4.1759
-1.58076
-1.89012
-1.8581
-1.94246
-2.19205
-2.10619
-2.39849
-1.8338
-1.89586
0.606363
0.655689
0.303588
-1.84668
-1.87378
-2.0932
-1.84545
-1.88822
-1.87414
-2.22503
0.70481
-4.86248
-2.17049
-0.609859
-0.637785
0.777469
-2.70838
-0.0791382
-1.8514
-1.8976
-1.93072
-1.8745
0.462459
0.0605176
-1.81306
0.809233
-2.10245
-1.82083
-1.91386
0.880013
-2.25777
-2.10332
-1.07157
0.420793
-2.45095
0.529879
0.30504
-0.228576
-1.9903
0.874507
0.724767
-0.939738
-2.13839
0.210501
-0.349409
-0.0244302
-2.59015
-1.91408
-1.90498
-5.89376
-5.32835
0.815014
-0.744877
-1.8265
-1.80897
-4.5282
-2.0561
0.820027
-1.29989
-0.00261209
-1.41967
-1.88282
-2.47674
-0.752014
-1.53162
-1.83303
-1.98993
-1.8119
0.791879
-0.526091
-0.97397
-1.79483
-1.8673
-0.29662
-2.23801
-2.32915
-2.87952
-1.38373
-1.88009
-2.63515
-1.8017
0.188152
-0.67216
-1.8039
-1.71559
-1.49565
-0.349178
-1.71442
-1.72094
-1.88076
-1.90643
0.263507
-0.746917
-3.00101
-1.70837
-2.27058
-1.68864
-1.92237
-1.74657
-1.76683
-1.66706
-1.72593
0.514002
-1.81491
-3.80957
-0.626038
-0.138803
-2.07347
-1.74035
-1.73487
-1.66669
-4.4516
0.540729
-1.76625
-0.276371
-1.84923
-1.65937
-1.71111
-1.72306
-1.63854
-1.72569
-1.56335
0.364929
-1.68208
-1.85379
-1.68548
-2.04765
-1.37827
0.517021
-1.65186
-1.72737
0.260621
0.076441
-1.60855
-1.54273
-1.84675
-1.21285
-0.876718
-1.73351
-1.2685
-2.21381
-1.73189
-0.0765099
-1.36844
-1.69601
-1.63366
-1.64392
-1.65112
-1.71456
-1.69991
-1.71306
-1.67539
-1.70101
-2.13018
-1.9656
-2.17766
-0.0841231
-1.67133
-1.98762
-4.65158e-05
-0.128453
-1.05615
0.0980094
-1.727
0.519819
-1.63405
0.0799655
-0.337006
-1.85416
-2.17003
-2.05278
-2.0851
-2.02059
-0.916489
-1.43092
-2.16965
-1.99621
-2.16309
-1.61032
-1.62946
-1.5514
-1.52564
-0.390179
-0.572692
-0.0765929
-0.853713
0.088188
0.105792
-0.125209
-1.6147
-1.74283
-2.13095
-1.79587
-1.86208
-1.20688
-0.968067
-1.15271
-1.76638
-1.77488
-1.59212
-1.55882
0.123344
0.190229
0.00154124
0.154999
0.240206
0.0959917
0.390681
0.282228
0.533251
0.371777
0.282187
0.22542
-0.0759185
-0.314365
-0.520134
-0.647563
-0.261378
-1.52954
-1.67804
-1.61133
-1.77416
-1.9201
-2.06473
-1.84811
-1.58368
-1.44023
0.181794
-0.917822
-0.319838
-0.391225
-0.0561398
-1.55311
-2.24316
-2.10731
-2.261
-1.99113
-2.22561
-2.00094
-2.14155
-1.78142
-1.71745
-1.97297
-1.64939
-2.13536
-1.89785
0.137831
0.0755724
0.120745
0.11045
0.0673013
0.0962122
0.0513533
-0.500886
-0.0215423
-0.150913
0.0422359
-0.150486
-2.04664
-1.8864
-2.20254
0.0260663
0.0355151
-0.385014
-0.240295
0.000416301
0.0432149
0.0411613
0.0281938
0.0583825
0.00105553
0.064959
0.0211659
0.0292573
3.932e-05
0.00983891
-0.203843
-0.237712
0.0410194
0.0556291
0.0261931
-0.000269443
-0.0841599
-0.000341285
-0.00625702
-0.15177
0.027171
-0.0340871
-0.0128952
-0.137271
0.00945959
0.0124409
0.0050146
-0.000960658
-5.92411e-05
0.00111463
0.0176388
-0.0433524
-0.0609467
0.0126056
0.00937185
3.34801e-05
0.0134024
-0.103113
-0.0999738
-0.0559348
-0.0771463
-0.0549703
4.29753e-06
-0.0345769
0.000524597
-0.0097905
-0.621071
-1.51642
-1.57221
0.127627
-2.00631
0.0448597
0.0131571
-0.0428345
-0.0719564
-0.325332
-0.193111
-0.318124
-0.00448152
-0.0214604
-0.0356689
-0.00855183
-0.078447
-0.0496151
-6.42822e-05
-0.127772
-0.109835
-0.0565659
-0.206548
-0.431008
-0.470865
-0.166583
-0.245857
-0.0178811
-0.0396468
-0.026127
-0.194769
-0.233591
0.040499
0.000277014
0.00690203
0.00274001
-0.000992484
-0.0123688
-0.00134124
-0.024973
-0.0112857
-0.0974414
-0.00682663
-0.0370836
0.000170059
-0.0114674
-0.027483
0.0072664
-0.0396123
-0.0198507
-8.0637e-06
-0.0112328
-0.0134105
-0.451117
VECTORS velocity float
1               0               0
1.01725               0               0
1.03422               0               0
1               0               0
0               0               0
0               0               0
0               0               0
0               0               0
0               0               0
0               0               0
0               0               0
0               0               0
0               0               0
0               0               0
0               0               0
0               0               0
0               0               0
0               0               0
0               0               0
0               0               0
0               0               0
0               0               0
0               0               0
0               0               0
0               0               0
0               0               0
0               0               0
0               0               0
0               0               0
0               0               0
0               0               0
0               0               0
0               0               0
0               0               0
0               0               0
0               0               0
0               0               0
0               0               0
0               0               0
0               0               0
0               0               0
0               0               0
0               0               0
0               0               0
0               0               0
0               0               0
0               0               0
0               0               0
0               0               0
0               0               0
0               0               0
0               0               0
0               0               0
0               0               0
0               0               0
0               0               0
0               0               0
0               0               0
0               0               0
0               0               0
0               0               0
0               0               0
0               0               0
0               0               0
0               0               0
0               0               0
0               0               0
0               0               0
0               0               0
0               0               0
0               0               0
0               0               0
0               0               0
0               0               0
0               0               0
0               0               0
0               0               0
0               0               0
0               0               0
0               0               0
0               0               0
0               0               0
0               0               0
0               0               0
0               0               0
0               0               0
0               0               0
0               0               0
0               0               0
0               0               0
0               0               0
0               0               0
0               0               0
0               0               0
0               0               0
0               0               0
0               0               0
0               0               0
0               0               0
0               0               0
0               0               0
0               0               0
0               0               0
0               0               0
1.42168               0               0
1.48157               0               0
0               0               0
-0.0918526       -0.399992               0
0.0634008        0.212234               0
0.0443199        -1.07678               0
-0.0544326        0.117709               0
-0.174848       -0.193044               0
0.263632        -1.15294               0
0.000806259       -0.832551               0
0.0420591        -1.29151               0
1.03705        -2.20783               0
1.82658        0.318902               0
0.0806048        -1.07095               0
0.0662818       -0.213252               0
0.0261976       -0.545753               0
0.474448        0.736231               0
1.95407        0.956636               0
0.0434043        0.602037               0
0.138852        0.388653               0
-0.0575924       -0.449733               0
0.0215217       -0.668784               0
0.128569       0.0971611               0
0.0350736       -0.736047               0
2.61088       -0.979831               0
0.0822457        0.464714               0
-0.00147389       -0.142432               0
0.333503       -0.993248               0
0.027281       -0.525431               0
0.155309        0.174592               0
0.38225       -0.973166               0
0.0751324       -0.428161               0
0.0800866       -0.347215               0
1               0               0
0.154265       0.0883281               0
0.230158        0.845127               0
1.52427               0               0
2.50756         1.57792               0
0.0914778     -0.00403451               0
-0.21102        0.495355               0
2.34151       -0.847164               0
1.48025         0.37729               0
0.0508911        -0.26771               0
0.0769462       -0.133095               0
0.127626       -0.081387               0
0.0190393       -0.435366               0
0.73141          1.1671               0
0.358233        0.428228               0
0.671053         1.17541               0
0.843122        0.581344               0
2.00154         1.34259               0
1.21388        0.851145               0
-0.0108238        0.738015               0
0.0892337        0.288959               0
0.00691659       -0.420363               0
0.0681278      -0.0156564               0
0.0154581       -0.614788               0
0.0750363         0.35386               0
0.0203879        0.370128               0
0.526789       -0.520666               0
0.134872     -0.00605832               0
0.174245       -0.766502               0
0.0550618        -0.24211               0
0.110894        0.109929               0
0.125836          0.3538               0
0.188564        0.942233               0
0.19097        0.650871               0
1.75259        -1.04419               0
1.52367         2.03636               0
-0.182446        0.334166               0
2.83767        0.219077               0
1.56072               0               0
0.105943       -0.118004               0
0.0699734      -0.0237443               0
0.0424608       -0.362118               0
0.471849         1.21748               0
0.176726         0.18245               0
0.36358         1.35665               0
0.316906        -1.21732               0
0.145486       -0.655366               0
0.140225        0.411833               0
0.129445        0.364853               0
0.0889438        0.564915               0
0.0440106        0.150627               0
0.0781011        0.302566               0
1.51761         1.65171               0
0.1562        0.177611               0
0.0301734         0.33638               0
0.154926        0.465039               0
0.475637        -1.67797               0
0.204456       -0.343482               0
2.5465       -0.388918               0
0.795445         1.16498               0
-0.0801751        0.371643               0
-0.152348        0.902313               0
0.183102        0.266794               0
0.147248       -0.493576               0
0.374159       -0.837128               0
0.195911      -0.0224079               0
0.158939        -0.41677               0
0.414666        0.809853               0
0.214289       -0.872602               0
0.156061        0.471497               0
0.138474        0.628665               0
0.29283        0.283771               0
0.156636       -0.266438               0
0.964206         1.39739               0
0.275844       0.0941416               0
0.1419       -0.304008               0
0.183956       -0.028345               0
2.27208         0.43402               0
0.947879        -1.27598               0
0.249936         1.43401               0
0.177511       -0.572298               0
1.07286         -1.4293               0
0.248728        0.414185               0
0.16218        0.517123               0
0.0391169        0.746083               0
0.909326         1.09975               0
0.130422       -0.141378               0
0.30934       -0.219538               0
-0.117642         1.16367               0
0.448908         1.25461               0
0.346638        0.640173               0
0.248144        0.940288               0
0.248657        0.710287               0
2.24178         1.03247               0
0.138922       -0.161371               0
0.426799        -1.12952               0
1.97863      -0.0751728               0
2.77721        0.456579               0
0.265051        0.148122               0
0.705556        -1.14232               0
0.345515        0.445653               0
0.316441       -0.312166               0
2.86216       -0.471953               0
0.691882         1.10596               0
0.230238        -0.18006               0
0.999682         1.69518               0
0.545027        0.829724               0
1.75653         1.05482               0
0.177945       -0.112481               0
1.54978        -1.31704               0
0.425481        -1.01924               0
1.80196        0.640562               0
0.819293        0.799475               0
0.579852        0.949562               0
0.630887        0.701892               0
0.375335      -0.0658862               0
0.723316          1.1729               0
1.29639         1.22195               0
0.32953      -0.0812148               0
0.236291       -0.225137               0
0.61182       -0.926874               0
1.7748        0.919867               0
2.34231       -0.836226               0
2.68106       0.0474836               0
0.805437        -1.42687               0
0.35094        0.622417               0
2.42735       -0.136707               0
0.345617       -0.204053               0
0.573121       -0.595295               0
0.999705       -0.965086               0
0.499868        0.616179               0
0.518184       -0.145474               0
1.35846        -1.27832               0
0.801934       -0.815946               0
0.665409         0.47699               0
0.478822       -0.290523               0
0.689801        -1.03877               0
1.2063       -0.908597               0
0.579653        0.457384               0
1.32911        0.698321               0
2.52873        0.847336               0
0.529704        0.293095               0
1               0               0
0.575336        -0.63876               0
2.06846        0.200536               0
0.594446       -0.829191               0
0.367348       -0.607854               0
0.625667       -0.225432               0
0.894137       -0.820936               0
0.388937       -0.380277               0
1.06478         0.73728               0
2.51968        0.776239               0
1.46148       -0.689674               0
0.884748        0.611498               0
1.27616         1.06834               0
0.919471        0.435086               0
0.420461       -0.442257               0
0.741323       -0.683362               0
2.33917        -1.80337               0
0.551669       -0.187799               0
0.939354        0.669268               0
0.980334       -0.560232               0
1.44966         0.72405               0
0.628372       -0.395324               0
1.14147        0.533373               0
0.811474        0.593933               0
0.704269       -0.519994               0
0.51189       0.0699446               0
2.04871       -0.266325               0
0.628055       -0.345728               0
1.64279        0.430537               0
1.84591       -0.315307               0
1.88313       0.0834567               0
1.76292         -0.6613               0
1.68992               0               0
0.570465        0.155008               0
0.979085       -0.540047               0
0.933937        0.526923               0
0.777776       -0.164219               0
0.777646       -0.432188               0
1.20778               0               0
1.87084        0.310762               0
1.00782        0.384231               0
1.65312        0.105575               0
1.51439        0.333719               0
0.731804       -0.022395               0
1.65753               0               0
1               0               0
0.749806        0.265657               0
1.00163       -0.274186               0
1.7572     -0.00305377               0
0.847877       -0.363236               0
0.845817       -0.546393               0
0.812792       -0.454079               0
0.741201       -0.356503               0
0.786283       -0.238652               0
0.932253       -0.447747               0
1.07422       -0.670914               0
1.14176       -0.450574               0
1.36008         -0.5081               0
1               0               0
0.968755       -0.267534               0
1               0               0
0.968343       -0.419833               0
1.52473       -0.323536               0
1.01745         0.28989               0
0.974727    -0.000489498               0
1.10882               0               0
1.57685               0               0
0.902947        0.225182               0
0.670008        0.122702               0
0.448987        0.278149               0
1.32209        0.381613               0
0.891924       -0.265269               0
1.21969       -0.317392               0
0.824063        0.203686               0
1               0               0
0.957067       0.0502625               0
0.989244        0.140938               0
0.979263       -0.106883               0
1.60755       -0.139293               0
1.64474               0               0
1               0               0
0.994051       -0.287252               0
1               0               0
1.22641       -0.217549               0
1.60961       -0.131464               0
1.38137               0               0
1.69907               0               0
1.26265       -0.496846               0
1.33111       -0.340466               0
1.07249               0               0
1.54476       -0.340714               0
0.927704       -0.103691               0
0.830482        0.388176               0
1.08253               0               0
1.18955               0               0
1.12374        0.307629               0
1               0               0
0.848607       -0.156668               0
0.857207      -0.0102272               0
1.70998        -0.10264               0
1.61586               0               0