# vtk DataFile Version 4.0
Elmer simulation
ASCII
DATASET UNSTRUCTURED_GRID
POINTS 	550 float
62                -163                   0
965                -163                   0
965                 617                   0
62                 617                   0
366                 422                   0
357                 417                   0
352                 408                   0
352                 398                   0
353                 388                   0
356                 379                   0
360                 370                   0
356                 361                   0
346                 355                   0
336                 352                   0
328                 345                   0
323                 336                   0
324                 326                   0
325                 316                   0
322                 306                   0
322                 295                   0
322                 284                   0
322                 274                   0
320                 264                   0
321                 254                   0
322                 244                   0
321                 234                   0
326                 224                   0
330                 215                   0
338                 208                   0
342                 199                   0
342                 189                   0
341                 180                   0
340                 169                   0
341                 159                   0
344                 149                   0
342                 138                   0
339                 130                   0
340                 120                   0
341                 112                   0
339                 102                   0
340                  92                   0
335                  86                   0
339                  83                   0
337                  73                   0
336                  63                   0
338                  53                   0
333                  47                   0
336                  45                   0
329                  37                   0
338                  33                   0
348                  32                   0
355                  36                   0
362                  43                   0
367                  49                   0
368                  54                   0
375                  56                   0
377                  49                   0
383                  44                   0
375                  39                   0
385                  41                   0
392                  47                   0
401                  51                   0
394                  58                   0
393                  68                   0
397                  78                   0
400                  88                   0
400                  98                   0
404                 108                   0
407                 119                   0
411                 128                   0
409                 137                   0
413                 147                   0
415                 158                   0
418                 167                   0
423                 176                   0
425                 187                   0
428                 195                   0
430                 205                   0
430                 216                   0
440                 217                   0
446                 224                   0
448                 233                   0
449                 243                   0
446                 253                   0
446                 264                   0
444                 273                   0
440                 280                   0
437                 291                   0
434                 301                   0
435                 310                   0
433                 319                   0
433                 330                   0
433                 340                   0
431                 349                   0
425                 355                   0
415                 359                   0
407                 363                   0
397                 368                   0
393                 376                   0
394                 385                   0
394                 396                   0
394                 406                   0
388                 415                   0
378                 420                   0
513.5                -163                   0
513.5                 617                   0
333.366             41.9897                   0
332.891             79.0217                   0
372                50.6                   0
326.063             43.9748                   0
371.283             44.2268                   0
367.442             37.5602                   0
328.048             56.2097                   0
329.143             95.9643                   0
324.971             69.2047                   0
315.978             35.6223                   0
373.606             25.7595                   0
323.189             85.7612                   0
326.591             186.157                   0
327.248              138.97                   0
339.591              378.53                   0
398.439             32.4043                   0
424.909             135.813                   0
439.752              186.03                   0
417.626             374.252                   0
448.909             317.813                   0
461.909             225.187                   0
327.248             114.343                   0
341.614             18.6362                   0
431.409              157.53                   0
405.599             379.156                   0
437.939             361.939                   0
447.487             304.057                   0
454.596             210.561                   0
446.909             347.813                   0
453.596             283.126                   0
456.251                 271                   0
62                 227                   0
304.935             240.657                   0
307.935             319.343                   0
287.75                 617                   0
353.217             434.409                   0
407.389             64.3889                   0
416.565                  93                   0
331.833            -5.05289                   0
381.679              31.603                   0
330.518             175.407                   0
333.111                 194                   0
313.091             212.874                   0
331.587             150.726                   0
320.404             361.752                   0
337.457             365.311                   0
340.283             391.778                   0
399.745             41.6987                   0
414.488             34.8882                   0
410.224             45.0201                   0
423.909             116.874                   0
439.511             197.898                   0
423.365             365.412                   0
459.348             236.915                   0
330.549             124.105                   0
428.204              167.22                   0
423.007             150.862                   0
410.565                 401                   0
404.043               390.5                   0
444.957                 335                   0
457.272               258.5                   0
312.34             248.084                   0
304.435             272.313                   0
312.954             329.945                   0
303.778               300.5                   0
405.909             420.439                   0
339.591             420.783                   0
411.746             79.0263                   0
369.698             6.40398                   0
287.75                -163                   0
327.327             203.874                   0
314.374             224.437                   0
329.251             162.875                   0
312.155             347.914                   0
348.278             369.821                   0
341.835                 403                   0
434.246             378.758                   0
312.728             124.692                   0
445.857             167.685                   0
434.02             176.599                   0
434.744             144.701                   0
311.826             258.133                   0
312.656                 279                   0
429.14             47.0182                   0
300.468             252.515                   0
313.047               289.5                   0
301.203             284.684                   0
310.235             52.8217                   0
475.01             281.462                   0
391.283             434.065                   0
326.784             373.817                   0
414.585             111.022                   0
426.018             103.159                   0
457.052             192.319                   0
415.523             386.296                   0
467.158             338.174                   0
294.578             220.781                   0
310.294              152.93                   0
292.882             332.958                   0
309.264             100.725                   0
444.603             154.112                   0
443.301             125.346                   0
282.327             273.145                   0
471.368             265.943                   0
322.47             399.959                   0
283.318             239.284                   0
312.98              170.85                   0
480.056             235.293                   0
395.102            -17.9152                   0
[...]
POINT_DATA	550
SCALARS pressure float 1
LOOKUP_TABLE default
-44.4223
-0.000493624
0.00018347
-44.5062
-34.8715
-34.1843
-33.4702
-33.1264
-33.2168
-33.4196
-33.6104
-33.8919
-34.2723
-34.634
-34.8253
-34.8323
-34.8365
-34.8319
-34.7895
-34.7547
-34.7853
-34.8196
-34.8147
-34.8301
-34.8447
-34.8386
-34.8378
-34.8359
-34.8473
-34.8537
-34.8494
-34.8696
-34.9308
-34.9657
-34.9828
-34.9893
-35.0082
-35.015
-34.9716
-34.8804
-34.8
-34.7136
-34.71
-34.5302
-34.3358
-34.0871
-34.0162
-34.0714
-34.8066
-36.232
-36.492
-35.7044
-35.3595
-34.9301
-34.7896
-34.7033
-34.695
-34.6987
-34.7052
-32.842
-31.5
-29.8646
-29.4851
-29.0609
-28.5606
-27.9471
-27.4818
-26.9925
-26.4734
-26.1261
-25.9381
-25.6925
-25.4473
-25.2224
-24.9871
-24.8481
-24.7798
-24.6999
-24.6781
-24.6597
-24.6228
-24.6189
-24.6348
-24.6782
-24.7323
-24.8293
-24.9618
-25.1452
-25.3863
-25.6179
-25.9294
-26.2957
-26.8131
-27.3274
-28.0817
-28.9972
-29.6138
-30.1168
-30.5447
-31.0175
-31.7814
-32.6573
-33.9188
-34.8292
-22.9106
-23.3718
-34.1414
-34.6746
-34.7665
-34.3233
-34.8598
-35.3463
-34.2586
-34.8811
-34.547
-34.8967
-34.6488
-34.8611
-34.9191
-35.0867
-33.6856
-31.423
-25.7705
-24.7466
-29.4197
-25.6233
-24.4093
-35.0534
-36.8045
-25.197
-30.3761
-27.4772
-25.2794
-24.5078
-26.6686
-24.8073
-24.6544
-43.5135
-35.081
-34.9986
-35.363
-34.3734
-29.2612
-27.3262
-34.4574
-33.6532
-34.938
-34.8619
-34.9982
-35.0332
-34.9043
-34.3919
-33.3519
-31.0007
-29.5383
-30.1344
-26.1645
-24.6992
-28.6019
-24.517
-35.0718
-25.1037
-25.4964
-31.8039
-31.2658
-26.3057
-24.606
-34.9057
-35.0501
-34.9821
-35.0081
-32.6534
-33.8816
-28.1774
-33.5154
-35.2302
-34.8631
-34.9313
-35.0207
-35.0549
-33.8201
-33.4169
-28.2252
-35.3824
-24.6685
-24.8789
-25.2845
-34.8899
-34.877
-27.915
-35.2067
-34.8342
-35.1571
-34.7089
-23.9848
-33.858
-34.3391
-26.6404
-26.457
-24.3637
-30.2646
-25.1162
-35.5679
-35.4537
-35.59
-35.3284
-24.831
-25.227
-35.8896
-24.0945
-34.0748
-35.931
-35.3213
-23.672
-30.2742
-35.1559
-26.4826
-24.4243
-29.3033
-23.968
-24.7995
-25.7047
-35.0748
-24.1121
-22.8037
-26.5882
-28.0171
-24.0208
-25.3146
-24.8445
-29.6758
-35.1633
-35.273
-36.3781
-35.0029
-23.4664
-25.9977
-35.9167
-36.3345
-34.8201
-35.2316
-23.4193
-26.6016
-23.9292
-26.9246
-35.5236
-35.1198
-26.4117
-27.7273
-36.2166
-35.5234
-36.4568
-22.1986
-25.1216
-25.9475
-36.6007
-35.8276
-24.9095
-34.0316
-29.6655
-31.8144
-27.28
-35.5892
-32.4894
-36.5899
-22.988
-25.1046
-36.2698
-38.0246
-27.2485
-24.2528
-37.8468
-37.4993
-35.5905
-36.3437
-22.0114
-24.3173
-33.0309
-37.613
-43.9385
-36.944
-31.8555
-36.2264
-36.1623
-38.9962
-36.7907
-22.8543
-36.0856
-32.1959
-24.3438
-22.4034
-34.3764
-40.1098
-36.8156
-37.3985
-35.9201
-20.3562
-37.1026
-22.2069
-35.4021
-38.3891
-38.47
-37.5868
-38.2551
-38.0054
-28.9332
-20.9466
-34.4693
-33.8707
-30.3726
-35.2434
-29.2451
-20.2045
-39.1775
-38.9384
-17.3579
-20.9732
-40.8687
-28.5688
-41.6595
-27.3375
-24.522
-40.5007
-29.5469
-44.3237
-39.9187
-17.6186
-30.0238
-40.6056
-38.8041
-39.5299
-39.5128
-40.764
-41.2071
-37.8658
-40.0962
-37.6834
-43.7159
-42.8988
-43.4806
-19.7588
-36.2566
-42.4859
0.000862834
-11.4843
-26.0696
-17.2325
-39.9325
-22.0759
-37.4152
-17.6433
-20.3259
-41.6515
-43.483
-42.9742
-43.0356
-42.984
-26.0125
-32.4893
-44.0197
-43.3731
-44.3782
-40.208
-34.481
-38.0262
-32.2684
-22.0777
-22.631
-8.60731
-25.5611
-13.0625
-19.9323
-11.27
-40.8777
-41.3215
-43.4791
-41.7106
-42.0784
-28.0665
-26.4834
-28.2698
-42.1346
-42.4987
-36.8916
-31.8648
-15.4953
-14.0692
-14.5269
-14.1633
-15.8981
-10.4825
-18.0765
-16.2669
-19.5951
-18.1641
-18.6364
-15.9267
-18.7577
-21.4028
-21.6712
-22.1138
-19.0082
-33.5665
-39.2999
-39.4949
-40.8304
-42.5155
-43.9501
-43.2291
-39.4443
-29.6192
-13.5604
-24.6989
-17.005
-19.1483
-14.4065
-36.3126
-44.1236
-43.2621
-43.7673
-42.5615
-43.9462
-43.1968
-43.5974
-42.5367
-42.1455
-43.6917
-41.5127
-44.2963
-43.3688
-11.7104
-9.63751
-11.2727
-13.0633
-7.78598
-9.66044
-7.53224
-19.922
-16.3757
-16.5995
-13.9805
-13.7643
-43.6682
-43.2876
-44.4425
-3.94943
-9.22421
-18.4535
-15.5387
0.000590861
-6.10514
-5.68323
-6.50983
-9.09864
0.00169919
-10.9754
-11.6216
-5.1986
0.000882247
-3.2098
-14.1231
-16.4591
-11.0714
-7.49489
-6.77564
-0.00129565
-12.5075
0.000168311
-6.30239
-12.6876
-4.73866
-12.8355
-9.55684
-15.7505
-2.14017
-7.1589
-4.54507
-0.00108339
-0.00129696
-2.12326
-2.68332
-5.63624
-9.1031
-2.35649
-3.60503
-0.000252564
-2.06086
-11.3445
-10.2633
-11.4167
-8.45001
-7.22646
-0.000224489
-6.45727
-4.45786e-05
-7.46758
-22.6411
-38.1163
-39.4715
-15.2717
-43.8219
-8.96771
-9.08006
-5.73913
-15.7342
-18.2217
-17.9934
-17.2869
-3.69031
-5.53643
-8.27656
-2.61919
-10.3649
-10.3909
-0.000504427
-12.7517
-10.9787
-7.55457
-14.3768
-20.4092
-20.2967
-13.2514
-15.8287
-2.86859
-7.15272
-4.85495
-15.4985
-17.3158
-6.81077
0.000450295
-1.85001
-1.79634
-3.89002
-3.82867
-1.888
-3.90116
-5.49182
-13.5029
-12.1813
-9.21629
0.000140546
-2.24768
-4.30273
-5.87379
-5.44093
-2.82022
0.000529807
-2.29531
-2.11917
-20.2048
VECTORS velocity float
1               0               0
1.01758               0               0
1.03433               0               0
1               0               0
0               0               0
0               0               0
0               0               0
0               0               0
0               0               0
0               0               0
0               0               0
0               0               0
0               0               0
0               0               0
0               0               0
0               0               0
0               0               0
0               0               0
0               0               0
0               0               0
0               0               0
0               0               0
0               0               0
0               0               0
0               0               0
0               0               0
0               0               0
0               0               0
0               0               0
0               0               0
0               0               0
0               0               0
0               0               0
0               0               0
0               0               0
0               0               0
0               0               0
0               0               0
0               0               0
0               0               0
0               0               0
0               0               0
0               0               0
0               0               0
0               0               0
0               0               0
0               0               0
0               0               0
0               0               0
0               0               0
0               0               0
0               0               0
0               0               0
0               0               0
0               0               0
0               0               0
0               0               0
0               0               0
0               0               0
0               0               0
0               0               0
0               0               0
0               0               0
0               0               0
0               0               0
0               0               0
0               0               0
0               0               0
0               0               0
0               0               0
0               0               0
0               0               0
0               0               0
0               0               0
0               0               0
0               0               0
0               0               0
0               0               0
0               0               0
0               0               0
0               0               0
0               0               0
0               0               0
0               0               0
0               0               0
0               0               0
0               0               0
0               0               0
0               0               0
0               0               0
0               0               0
0               0               0
0               0               0
0               0               0
0               0               0
0               0               0
0               0               0
0               0               0
0               0               0
0               0               0
0               0               0
0               0               0
0               0               0
0               0               0
1.39987               0               0
1.44457               0               0
0               0               0
-0.114385       -0.455203               0
0.129703        0.305966               0
0.082065        -1.19692               0
0.232279        0.297095               0
0.031971    -0.000519197               0
0.294651        -1.28895               0
-0.0169893       -0.892042               0
0.0629548        -1.38733               0
1.12035        -2.28731               0
2.33151        0.571318               0
0.0643412        -1.13657               0
0.0912603       -0.189964               0
0.0277351       -0.535681               0
0.519893        0.867578               0
2.31112         1.14168               0
0.108933         0.70489               0
0.166961        0.412173               0
0.27138       -0.658383               0
0.105456       -0.814792               0
0.177618       0.0813838               0
0.0204174       -0.770869               0
2.9821       -0.936576               0
0.154149        0.539332               0
0.134451       -0.371728               0
0.734257        -1.13044               0
0.0899632       -0.627671               0
0.18098         0.15107               0
0.600184        -1.17627               0
0.132451       -0.464738               0
0.114691       -0.356053               0
1               0               0
0.184236       0.0908423               0
0.234695        0.831728               0
1.5143               0               0
2.75233         1.55826               0
-0.00876358         0.47691               0
0.0543023        0.782824               0
2.33173       -0.737975               0
1.97607        0.538538               0
0.0657222       -0.239986               0
0.0841519       -0.134389               0
0.15887      -0.0451283               0
0.0296272       -0.428235               0
0.827696         1.19734               0
0.52524         0.55516               0
0.637856         1.27858               0
1.19318        0.839603               0
2.09794          1.5338               0
1.35495          1.3186               0
0.164226        0.862907               0
0.103008         0.29851               0
0.40538       -0.534417               0
0.118136      -0.0165083               0
-0.00731348       -0.638621               0
0.147049        0.433936               0
0.0989678        0.449124               0
0.604555       -0.990697               0
0.164791       -0.382886               0
0.226901        -0.95793               0
0.106384       -0.237235               0
0.140607        0.117296               0
0.163731        0.330043               0
0.185242        0.965086               0
0.217186        0.610239               0
2.07051        -1.46291               0
1.63056         2.09614               0
-0.127231        0.668836               0
2.89685        0.318614               0
1.54767               0               0
0.118317      -0.0958916               0
0.109492     -0.00911808               0
0.048233       -0.335814               0
0.502488         1.24841               0
0.336088        0.317587               0
0.367108         1.44855               0
0.537675        -1.22404               0
0.135469       -0.630476               0
0.175926        0.426163               0
0.165356        0.436581               0
0.167744        0.599506               0
0.074859         0.14523               0
0.112104        0.328628               0
1.4667         1.74639               0
0.169116        0.179435               0
0.0646256        0.354033               0
0.168833        0.433856               0
0.518473        -1.69858               0
0.25356       -0.351273               0
2.96536       -0.650325               0
0.818288          1.1848               0
0.0812987        0.550699               0
0.0913523        0.978664               0
0.210919        0.248228               0
0.227992       -0.800213               0
0.428162       -0.841241               0
0.21263     -0.00553778               0
0.153798       -0.404495               0
0.413603        0.794531               0
0.207454       -0.868553               0
0.206585        0.487755               0
0.248456        0.662335               0
0.292654        0.276395               0
0.195503       -0.257798               0
0.947071         1.40005               0
0.312132       0.0922052               0
0.153238       -0.279009               0
0.235465      -0.0336171               0
2.17398        0.419103               0
0.999352        -1.24944               0
0.330822         1.29688               0
0.254617       -0.567799               0
1.14129        -1.62341               0
0.285809        0.417307               0
0.247164        0.546546               0
0.224615        0.784328               0
0.881312         1.08348               0
0.193259       -0.131656               0
0.347251       -0.231745               0
0.101271         1.13706               0
0.368989         1.48696               0
0.415394        0.619613               0
0.386524        0.865439               0
0.36962        0.699219               0
2.22191         1.04719               0
0.158645       -0.138117               0
0.435882        -1.13094               0
2.52086        0.103044               0
3.17462        0.349776               0
0.314892        0.159628               0
0.849015        -1.04244               0
0.359607        0.452509               0
0.317298       -0.311344               0
3.00526       -0.363287               0
0.726662         1.09664               0
0.278625       -0.182601               0
0.970181         1.57698               0
0.616655        0.761711               0
1.64941        0.973809               0
0.202916      -0.0932315               0
1.58911        -1.24091               0
0.630454       -0.977327               0
1.73236        0.605903               0
0.805528        0.798818               0
0.596321        0.943616               0
0.64114        0.701094               0
0.416004      -0.0731361               0
0.739101         1.04277               0
1.22607         1.08534               0
0.320277      -0.0707416               0
0.240225       -0.212359               0
0.710435       -0.898401               0
1.78809        0.868792               0
2.18372       -0.840052               0
2.55424      -0.0719945               0
0.945795        -1.29164               0
0.351243        0.600275               0
2.3372        -0.07325               0
0.348024       -0.200917               0
0.623386       -0.585806               0
1.05182        -0.80938               0
0.487198        0.588751               0
0.524414       -0.149928               0
1.28462        -1.15181               0
0.860348       -0.744844               0
0.672897        0.478892               0
0.477074       -0.287449               0
0.719829        -1.04197               0
1.24333       -0.877797               0
0.612647        0.431068               0
1.31227        0.656566               0
2.47512         0.70214               0
0.5415        0.298863               0
1               0               0
0.571965       -0.639769               0
2.05092        0.157814               0
0.59969       -0.847683               0
0.354034       -0.622424               0
0.621018       -0.228301               0
0.909645       -0.821713               0
0.43031       -0.385948               0
1.11238        0.739617               0
2.61416         0.83391               0
1.40057       -0.583157               0
0.893374        0.573443               0
1.34495         1.05587               0
0.923621         0.41534               0
0.422278       -0.441845               0
0.751597       -0.686101               0
2.58893        -1.85171               0
0.578768       -0.191246               0
0.956535          0.6685               0
1.00255        -0.52888               0
1.44834         0.70169               0
0.624865       -0.392343               0
1.14777        0.520877               0
0.818751        0.591735               0
0.710969       -0.520218               0
0.515024       0.0764162               0
1.9722       -0.281746               0
0.661406       -0.337981               0
1.6377        0.396882               0
1.81835       -0.281197               0
1.83827       0.0942515               0
1.76397        -0.62504               0
1.65912               0               0
0.589525        0.159511               0
0.99779       -0.525961               0
0.951511        0.506617               0
0.783494       -0.160684               0
0.809938       -0.418456               0
1.22026               0               0
1.81685          0.3012               0
1.02171        0.370047               0
1.62054        0.106939               0
1.47934         0.32148               0
0.735996      -0.0328351               0
1.64169               0               0
1               0               0
0.764802        0.237066               0
0.999825       -0.248737               0
1.71829     -0.00385601               0
0.865609       -0.351692               0
0.868529       -0.543601               0
0.821526       -0.447075               0
0.738429       -0.361862               0
0.791069       -0.201532               0
0.942994       -0.412564               0
1.09712       -0.663873               0
1.15068       -0.422431               0
1.37008       -0.486799               0
1               0               0
0.963997       -0.286159               0
1               0               0
0.97762       -0.392958               0
1.51306       -0.313045               0
1.01913        0.298843               0
0.973954    -0.000315095               0
1.10362               0               0
1.54763               0               0
0.910045         0.21043               0
0.688144        0.118988               0
0.487264        0.269577               0
1.33685         0.37196               0
0.89884       -0.255755               0
1.20279       -0.300841               0
0.803513        0.172923               0
1               0               0
0.937957       0.0723874               0
0.97559        0.183739               0
0.962403       -0.138575               0
1.57173       -0.140749               0
1.63028               0               0
1               0               0
0.999205       -0.316018               0
1               0               0
1.24172       -0.208213               0
1.607       -0.120936               0
1.38524               0               0
1.67504               0               0
1.22666       -0.453638               0
1.32832       -0.323091               0
1.06694               0               0
1.4991       -0.313976               0
0.931647       -0.100383               0
0.849169        0.368952               0
1.07788               0               0
1.21424               0               0
1.15935        0.276017               0
1               0               0
0.839355       -0.126885               0
0.842521    -0.000194646               0
1.65911       -0.112552               0
1.58686               0               0
1.66114      -0.0329676               0
1.04729       -0.379573               0
1.09544       -0.300186               0
1.45146        -0.13189               0
1.71286      -0.0405687               0
0.90434       -0.156333               0