# vtk DataFile Version 4.0
Elmer simulation
ASCII
DATASET UNSTRUCTURED_GRID
POINTS 	550 float
62                -163                   0
965                -163                   0
965                 617                   0
62                 617                   0
366                 422                   0
357                 417                   0
352                 408                   0
352                 398                   0
353                 388                   0
356                 379                   0
360                 370                   0
356                 361                   0
346                 355                   0
336                 352                   0
328                 345                   0
323                 336                   0
324                 326                   0
325                 316                   0
322                 306                   0
322                 295                   0
322                 284                   0
322                 274                   0
320                 264                   0
321                 254                   0
322                 244                   0
321                 234                   0
326                 224                   0
330                 215                   0
338                 208                   0
342                 199                   0
342                 189                   0
341                 180                   0
340                 169                   0
341                 159                   0
344                 149                   0
342                 138                   0
339                 130                   0
340                 120                   0
341                 112                   0
339                 102                   0
340                  92                   0
335                  86                   0
339                  83                   0
337                  73                   0
336                  63                   0
338                  53                   0
333                  47                   0
336                  45                   0
329                  37                   0
338                  33                   0
348                  32                   0
355                  36                   0
362                  43                   0
367                  49                   0
368                  54                   0
375                  56                   0
377                  49                   0
383                  44                   0
375                  39                   0
385                  41                   0
392                  47                   0
401                  51                   0
394                  58                   0
393                  68                   0
397                  78                   0
400                  88                   0
400                  98                   0
404                 108                   0
407                 119                   0
411                 128                   0
409                 137                   0
413                 147                   0
415                 158                   0
418                 167                   0
423                 176                   0
425                 187                   0
428                 195                   0
430                 205                   0
430                 216                   0
440                 217                   0
446                 224                   0
448                 233                   0
449                 243                   0
446                 253                   0
446                 264                   0
444                 273                   0
440                 280                   0
437                 291                   0
434                 301                   0
435                 310                   0
433                 319                   0
433                 330                   0
433                 340                   0
431                 349                   0
425                 355                   0
415                 359                   0
407                 363                   0
397                 368                   0
393                 376                   0
394                 385                   0
394                 396                   0
394                 406                   0
388                 415                   0
378                 420                   0
513.5                -163                   0
513.5                 617                   0
333.366             41.9897                   0
332.891             79.0217                   0
372                50.6                   0
326.063             43.9748                   0
371.283             44.2268                   0
367.442             37.5602                   0
328.048             56.2097                   0
329.143             95.9643                   0
324.971             69.2047                   0
315.978             35.6223                   0
373.606             25.7595                   0
323.189             85.7612                   0
326.591             186.157                   0
327.248              138.97                   0
339.591              378.53                   0
398.439             32.4043                   0
424.909             135.813                   0
439.752              186.03                   0
417.626             374.252                   0
448.909             317.813                   0
461.909             225.187                   0
327.248             114.343                   0
341.614             18.6362                   0
431.409              157.53                   0
405.599             379.156                   0
437.939             361.939                   0
447.487             304.057                   0
454.596             210.561                   0
446.909             347.813                   0
453.596             283.126                   0
456.251                 271                   0
62                 227                   0
304.935             240.657                   0
307.935             319.343                   0
287.75                 617                   0
353.217             434.409                   0
407.389             64.3889                   0
416.565                  93                   0
331.833            -5.05289                   0
381.679              31.603                   0
330.518             175.407                   0
333.111                 194                   0
313.091             212.874                   0
331.587             150.726                   0
320.404             361.752                   0
337.457             365.311                   0
340.283             391.778                   0
399.745             41.6987                   0
414.488             34.8882                   0
410.224             45.0201                   0
423.909             116.874                   0
439.511             197.898                   0
423.365             365.412                   0
459.348             236.915                   0
330.549             124.105                   0
428.204              167.22                   0
423.007             150.862                   0
410.565                 401                   0
404.043               390.5                   0
444.957                 335                   0
457.272               258.5                   0
312.34             248.084                   0
304.435             272.313                   0
312.954             329.945                   0
303.778               300.5                   0
405.909             420.439                   0
339.591             420.783                   0
411.746             79.0263                   0
369.698             6.40398                   0
287.75                -163                   0
327.327             203.874                   0
314.374             224.437                   0
329.251             162.875                   0
312.155             347.914                   0
348.278             369.821                   0
341.835                 403                   0
434.246             378.758                   0
312.728             124.692                   0
445.857             167.685                   0
434.02             176.599                   0
434.744             144.701                   0
311.826             258.133                   0
312.656                 279                   0
429.14             47.0182                   0
300.468             252.515                   0
313.047               289.5                   0
301.203             284.684                   0
310.235             52.8217                   0
475.01             281.462                   0
391.283             434.065                   0
326.784             373.817                   0
414.585             111.022                   0
426.018             103.159                   0
457.052             192.319                   0
415.523             386.296                   0
467.158             338.174                   0
294.578             220.781                   0
310.294              152.93                   0
292.882             332.958                   0
309.264             100.725                   0
444.603             154.112                   0
443.301             125.346                   0
282.327             273.145                   0
471.368             265.943                   0
322.47             399.959                   0
283.318             239.284                   0
312.98              170.85                   0
480.056             235.293                   0
395.102            -17.9152                   0
[...]
POINT_DATA	550
SCALARS pressure float 1
LOOKUP_TABLE default
106.81
0.00324504
0.00151543
107.302
70.8139
76.4529
80.7129
84.0815
86.0999
87.0951
87.5939
87.9694
88.6844
89.8541
91.3527
92.9412
94.2451
94.8719
95.4886
95.9322
96.4022
96.7317
97.035
97.1914
97.2857
97.3398
97.3133
97.2514
97.1766
97.0883
96.9912
96.8936
96.727
96.4695
96.1686
95.8603
95.5279
94.8689
94.3418
93.7138
92.9605
92.3326
91.6379
90.313
88.8359
87.1832
85.7647
85.454
81.836
76.228
70.6474
66.7729
65.6557
64.6427
64.4989
64.4467
64.3157
64.2865
64.2358
59.5624
56.0406
52.5212
51.5544
50.8607
50.1681
49.3219
48.5572
47.8343
46.9806
46.3378
45.8665
45.412
44.9006
44.4429
43.9897
43.621
43.4089
43.1785
43.1226
43.0752
42.9299
42.8414
42.8462
42.9407
43.0961
43.3428
43.605
43.9625
44.3671
44.7977
45.3167
45.9627
46.9773
48.2707
49.7949
51.3023
52.0673
52.603
53.0304
53.6421
54.8928
56.4781
59.8933
64.4211
48.8452
49.8086
85.0594
91.1398
64.4649
84.6394
64.5253
65.3441
87.5715
93.1628
89.8374
84.0214
64.4459
92.2014
97.037
95.8732
87.1666
57.3298
45.7282
43.5133
51.9116
45.0422
42.6238
94.5299
73.1124
44.5789
52.852
49.1117
44.3492
42.8889
47.2108
43.4882
43.1175
111.932
97.5219
94.9248
82.5323
74.4872
51.0163
48.5884
76.1998
61.6309
96.8626
97.0751
97.4321
96.2584
90.308
88.7238
85.4902
54.7891
55.0347
53.2298
46.7296
43.2423
50.7246
42.6899
95.1726
44.249
45.0663
54.7288
53.9372
46.1757
42.8912
97.3116
97.014
93.8742
95.9693
57.7467
79.8159
49.7784
66.8294
81.6745
97.2177
97.4076
96.6342
92.1731
87.7755
82.9377
50.9456
95.4364
43.8358
43.8337
45.0218
97.1718
96.6598
52.3127
97.5176
96.2301
96.7213
88.1654
42.6958
62.2566
88.5857
47.3581
47.5835
43.0063
52.9368
45.4343
97.9652
96.6612
94.6253
93.8897
44.3311
45.6274
97.741
42.5266
85.8512
98.2605
97.0725
41.8668
63.2937
87.6962
48.9182
43.7656
52.9403
43.2783
44.7311
46.5591
90.0457
42.3348
41.2353
48.3491
50.3875
44.4175
46.9563
45.7114
58.4775
97.4142
91.7677
67.5184
67.0297
41.8408
48.2409
97.019
97.9218
70.728
91.5092
41.7451
50.1908
45.1731
53.8187
97.8287
83.8417
47.9208
57.385
93.1687
93.227
95.1094
40.2933
47.8219
50.8122
98.9233
97.8214
46.0878
80.1414
59.1283
66.1459
50.6145
95.9285
69.9691
98.6224
42.8041
48.4919
96.1241
100.443
52.6103
46.1133
98.003
99.2547
90.7057
89.0912
41.7313
49.219
71.9667
99.46
109.246
96.0888
70.7017
93.6845
95.8598
101.38
92.7447
41.8292
89.6548
62.2964
49.5031
44.1228
84.2442
100.972
97.6329
95.4461
78.5321
38.1309
93.484
43.7125
85.9515
99.526
94.7919
96.0991
98.1369
100.604
61.7457
39.5038
80.8447
77.481
66.6809
82.5782
64.5794
37.9625
97.2905
97.5514
33.5625
40.4254
96.8445
61.1163
102.882
59.4007
51.6388
104.352
65.683
109.465
102.224
35.1194
66.7936
102.622
97.849
100.169
101.101
103.977
102.339
93.5072
97.3798
90.5625
111.04
108.194
110.801
39.005
85.3968
107.427
-0.00173389
23.474
56.4117
33.9817
103.188
40.8178
89.9166
34.5914
41.4482
106.183
111.613
109.899
109.854
109.764
55.9338
74.2534
110.39
107.373
107.492
95.8234
79.5594
89.585
73.1616
44.6009
46.809
17.5121
53.8557
25.6759
38.9606
23.1104
97.2283
99.8428
111.275
106.352
107.472
60.88
57.4842
62.0871
102.915
102.207
86.6585
71.8669
30.3112
27.3207
28.7873
27.6316
30.7236
20.5963
34.4646
31.2422
36.8793
34.5722
35.9127
30.8484
37.5887
43.4235
44.9782
46.711
38.9157
77.4319
95.4521
94.5685
99.8784
104.194
107.098
103.35
93.3893
65.4972
26.3675
52.7886
35.3357
39.7358
29.0329
85.7123
107.57
107.267
110.235
106.366
108.284
105.118
107.499
101.792
100.644
105.267
98.5745
106.824
103.886
22.8764
18.9475
22.059
25.6489
15.3226
18.964
14.8433
41.901
32.7721
33.731
27.7468
28.1309
105.649
103.677
107.345
7.79898
18.2348
38.4489
32.0737
-0.00165854
12.0305
11.2018
12.8917
17.9273
-0.00615965
21.6284
23.0435
10.2713
-0.00527798
6.37871
29.1219
33.8234
21.9316
14.7656
13.4556
0.000763958
25.2686
-0.00130154
12.5942
26.0407
9.36489
25.6462
19.1145
31.8246
4.23948
14.2246
9.05441
0.00339764
0.00554026
4.23288
5.30166
11.4636
18.4679
4.65953
7.17151
-0.000126916
4.07499
23.1349
20.9759
23.0572
17.2495
14.6945
0.000894224
13.0724
-0.00162672
14.9803
47.7405
90.2048
93.9706
29.9854
105.263
17.7421
18.0969
11.6308
31.4624
37.6661
36.45
35.9675
7.38167
11.1339
16.6516
5.26439
21.003
20.9235
0.00637887
25.989
22.3819
15.3064
29.5942
42.2509
42.6325
27.1647
32.6573
5.80225
14.4305
9.80062
31.6743
35.3693
13.461
-0.00231079
3.6695
3.58024
7.78855
7.71859
3.78792
7.9108
11.0421
27.3894
24.3678
18.582
0.00133345
4.53386
8.70175
11.7328
11.0572
5.72412
0.00217304
4.63872
4.2953
42.2296
VECTORS velocity float
1               0               0
1.01307               0               0
1.02939               0               0
1               0               0
0               0               0
0               0               0
0               0               0
0               0               0
0               0               0
0               0               0
0               0               0
0               0               0
0               0               0
0               0               0
0               0               0
0               0               0
0               0               0
0               0               0
0               0               0
0               0               0
0               0               0
0               0               0
0               0               0
0               0               0
0               0               0
0               0               0
0               0               0
0               0               0
0               0               0
0               0               0
0               0               0
0               0               0
0               0               0
0               0               0
0               0               0
0               0               0
0               0               0
0               0               0
0               0               0
0               0               0
0               0               0
0               0               0
0               0               0
0               0               0
0               0               0
0               0               0
0               0               0
0               0               0
0               0               0
0               0               0
0               0               0
0               0               0
0               0               0
0               0               0
0               0               0
0               0               0
0               0               0
0               0               0
0               0               0
0               0               0
0               0               0
0               0               0
0               0               0
0               0               0
0               0               0
0               0               0
0               0               0
0               0               0
0               0               0
0               0               0
0               0               0
0               0               0
0               0               0
0               0               0
0               0               0
0               0               0
0               0               0
0               0               0
0               0               0
0               0               0
0               0               0
0               0               0
0               0               0
0               0               0
0               0               0
0               0               0
0               0               0
0               0               0
0               0               0
0               0               0
0               0               0
0               0               0
0               0               0
0               0               0
0               0               0
0               0               0
0               0               0
0               0               0
0               0               0
0               0               0
0               0               0
0               0               0
0               0               0
0               0               0
1.30633               0               0
1.33472               0               0
0               0               0
-0.0556161        -0.71162               0
0.121075        0.294242               0
0.2796        -1.28931               0
0.759701        0.536459               0
0.267338        0.343923               0
0.356843        -1.33657               0
0.0549416       -0.792112               0
0.216664        -1.33502               0
1.21723        -1.89784               0
2.42353        0.532865               0
0.112486        -1.02135               0
0.142539       -0.134472               0
0.0812351       -0.435326               0
0.513721         0.93166               0
2.37997         1.15322               0
0.214036        0.626508               0
0.183303        0.312493               0
0.65638       -0.748255               0
0.28286       -0.741183               0
0.305745       0.0165074               0
0.0686067        -0.70279               0
2.96777       -0.674727               0
0.252949        0.500958               0
0.334638       -0.735792               0
0.993584        -1.05794               0
0.205806       -0.615122               0
0.24983       0.0836312               0
0.71306        -1.11819               0
0.245335       -0.368529               0
0.226848       -0.280949               0
1               0               0
0.297472       0.0851734               0
0.286023        0.655084               0
1.39902               0               0
2.59362         1.23068               0
-0.0134424        0.857146               0
0.299437        0.897362               0
2.02074       -0.499654               0
2.30957        0.457065               0
0.103533       -0.134208               0
0.0694845       -0.119092               0
0.244189      -0.0110647               0
0.100734       -0.328069               0
0.864072         1.02539               0
0.711679        0.669193               0
0.612657         1.20026               0
1.66061          1.0881               0
1.8134         1.37456               0
1.27619          1.5547               0
0.304374        0.797193               0
0.149944        0.254239               0
0.804765       -0.602721               0
0.201437       -0.032048               0
0.0387832       -0.534072               0
0.226315        0.455007               0
0.197033        0.455188               0
0.662058        -1.17658               0
0.307263       -0.804251               0
0.318282        -0.96646               0
0.204042       -0.190629               0
0.196092        0.112618               0
0.292527        0.238606               0
0.26311        0.811524               0
0.331989        0.459977               0
1.97698        -1.42971               0
1.61732         1.71044               0
0.197876        0.843484               0
2.45454        0.259517               0
1.42836               0               0
0.112382      -0.0502954               0
0.220963       0.0307683               0
0.0982667       -0.251028               0
0.604845         1.05414               0
0.512491         0.48616               0
0.501279         1.39591               0
0.783869       -0.979677               0
0.225718       -0.470429               0
0.283108        0.336832               0
0.211176        0.392667               0
0.297836        0.476826               0
0.165437        0.143668               0
0.17472        0.327693               0
1.26699         1.32955               0
0.276665         0.15068               0
0.163761        0.347042               0
0.281725        0.329087               0
0.639392         -1.4304               0
0.414177       -0.286187               0
2.85407       -0.729505               0
0.766671         1.03579               0
0.221818        0.636334               0
0.344586        0.814938               0
0.29791        0.140832               0
0.561616        -0.92755               0
0.554907       -0.658603               0
0.331455       0.0332952               0
0.242199       -0.311572               0
0.515915        0.602923               0
0.293824       -0.728843               0
0.305754          0.3875               0
0.401904         0.52779               0
0.418902        0.225074               0
0.345684       -0.161732               0
0.982582         1.15262               0
0.462147       0.0874076               0
0.25473       -0.170306               0
0.415954      -0.0386048               0
1.92074        0.318869               0
1.06057        -1.03116               0
0.515728        0.927093               0
0.440564       -0.448703               0
1.15379        -1.30422               0
0.405449        0.310983               0
0.409434        0.447082               0
0.411785        0.652645               0
0.836009        0.879159               0
0.390996      -0.0865301               0
0.512848       -0.185295               0
0.370228         0.87238               0
0.446131         1.20562               0
0.532869        0.478563               0
0.560122         0.66847               0
0.521746         0.56675               0
1.94233        0.841367               0
0.251029      -0.0617309               0
0.528836       -0.987277               0
2.71231        0.350296               0
3.06733        0.177664               0
0.483533        0.105572               0
0.946302       -0.796244               0
0.484658        0.381898               0
0.412449       -0.235779               0
2.6041       -0.211837               0
0.771718        0.852405               0
0.470479       -0.136348               0
0.933473         1.11861               0
0.746359          0.5646               0
1.43649        0.727668               0
0.341106      -0.0366003               0
1.50702       -0.906996               0
0.767812         -0.7926               0
1.55902        0.483831               0
0.823363        0.668505               0
0.663236        0.744931               0
0.702774        0.563137               0
0.577127      -0.0694603               0
0.780774        0.780411               0
1.13212        0.803363               0
0.423631      -0.0380107               0
0.343966       -0.135074               0
0.825203       -0.699189               0
1.64101        0.623004               0
1.81132       -0.620391               0
2.10364       -0.120859               0
1.04645       -0.924987               0
0.457228        0.446844               0
2.01508         -0.0492               0
0.445133       -0.141141               0
0.731998       -0.470499               0
1.10899       -0.580821               0
0.575927        0.434039               0
0.605935        -0.11094               0
1.21892       -0.778541               0
0.9247       -0.576262               0
0.742089        0.373233               0
0.548119       -0.222845               0
0.812173       -0.906004               0
1.24136       -0.673847               0
0.684844        0.320292               0
1.24369        0.501451               0
2.08098        0.391074               0
0.633488        0.233043               0
1               0               0
0.62561       -0.527141               0
1.81284        0.111573               0
0.663957       -0.729709               0
0.424745       -0.532681               0
0.669097       -0.166101               0
0.944893       -0.678224               0
0.569245        -0.30475               0
1.1459        0.623222               0
2.34805        0.653171               0
1.32028       -0.406966               0
0.914528        0.434776               0
1.33097        0.866446               0
0.913849         0.31262               0
0.504066       -0.350071               0
0.804027       -0.572935               0
2.50907        -1.52565               0
0.691209       -0.156797               0
0.976148        0.535923               0
1.01327       -0.410286               0
1.34986        0.532423               0
0.675646       -0.310491               0
1.10244        0.412708               0
0.857048        0.483386               0
0.761833       -0.418062               0
0.599707       0.0693596               0
1.73264       -0.217226               0
0.755969       -0.265498               0
1.49024        0.288185               0
1.64511       -0.199615               0
1.65798        0.077736               0
1.60157        -0.47014               0
1.51105               0               0
0.686992         0.12226               0
1.00619       -0.431357               0
0.96223        0.414899               0
0.833248       -0.127516               0
0.880666       -0.315793               0
1.16681               0               0
1.62144        0.240615               0
0.979601         0.30282               0
1.47754       0.0910579               0
1.36111         0.25044               0
0.748641      -0.0344018               0
1.50082               0               0
1               0               0
0.800316        0.181131               0
0.992606       -0.175544               0
1.54405     -0.00251669               0
0.859134       -0.270517               0
0.899692       -0.449389               0
0.846968        -0.34511               0
0.764556       -0.291445               0
0.810161       -0.144476               0
0.938783       -0.303047               0
1.10617       -0.528725               0
1.11352       -0.332262               0
1.30569       -0.371124               0
1               0               0
0.858999       -0.219872               0
1               0               0
0.995684       -0.300998               0
1.4016       -0.252447               0
0.914532        0.226432               0
0.977344    -0.000124441               0
1.0788               0               0
1.42462               0               0
0.922494        0.153634               0
0.735905       0.0972017               0
0.616001        0.169552               0
1.28338        0.283652               0
0.918781       -0.207585               0
1.15324       -0.228117               0
0.749303       0.0941148               0
1               0               0
0.802195       0.0766621               0
0.838261        0.200913               0
0.815836       -0.122354               0
1.43706       -0.107831               0
1.49479               0               0
1               0               0
0.887673       -0.234619               0
1               0               0
1.19579       -0.168389               0
1.4874      -0.0915818               0
1.30931               0               0
1.53362               0               0
1.16405       -0.338003               0
1.27185       -0.256272               0
1.05025               0               0
1.38232       -0.235852               0
0.9452      -0.0855187               0
0.888646        0.278195               0
1.05675               0               0
1.17866               0               0
1.13108        0.188014               0
1               0               0
0.811859      -0.0614495               0
0.806706       0.0199337               0
1.49026      -0.0953073               0
1.44813               0               0
1.50336      -0.0337064               0
1.00423       -0.272159               0
1.05706       -0.208945               0
1.35689      -0.0906642               0
1.56242      -0.0297573               0
0.929871       -0.121414               0
0.890824      -0.0362802               0
0.984035       -0.120771               0
0.912225       -0.078871               0
0.841348       -0.070019               0
0.941518      -0.0277614               0
0.778591       -0.047698               0
0.835606      0.00244797               0
0.68956      0.00431416               0
0.761853       0.0510809               0
0.807518        0.135426               0
0.876182       0.0694232               0
0.966484        0.229906               0
1.1198        0.323165               0
1.17904        0.247792               0